<?xml version="1.0"?>
<VTKFile type="UnstructuredGrid"  version="0.1"  >
<UnstructuredGrid>
<Piece  NumberOfPoints="121" NumberOfCells="200">
<Points>
<DataArray  type="Float64"  NumberOfComponents="3"  format="ascii">0 0 0  0.1 0 0  0.2 0 0  0.3 0 0  0.4 0 0  0.5 0 0  0.6 0 0  0.7 0 0  0.8 0 0  0.9 0 0  1 0 0  0 0.1 0  0.1 0.1 0  0.2 0.1 0  0.3 0.1 0  0.4 0.1 0  0.5 0.1 0  0.6 0.1 0  0.7 0.1 0  0.8 0.1 0  0.9 0.1 0  1 0.1 0  0 0.2 0  0.1 0.2 0  0.2 0.2 0  0.3 0.2 0  0.4 0.2 0  0.5 0.2 0  0.6 0.2 0  0.7 0.2 0  0.8 0.2 0  0.9 0.2 0  1 0.2 0  0 0.3 0  0.1 0.3 0  0.2 0.3 0  0.3 0.3 0  0.4 0.3 0  0.5 0.3 0  0.6 0.3 0  0.7 0.3 0  0.8 0.3 0  0.9 0.3 0  1 0.3 0  0 0.4 0  0.1 0.4 0  0.2 0.4 0  0.3 0.4 0  0.4 0.4 0  0.5 0.4 0  0.6 0.4 0  0.7 0.4 0  0.8 0.4 0  0.9 0.4 0  1 0.4 0  0 0.5 0  0.1 0.5 0  0.2 0.5 0  0.3 0.5 0  0.4 0.5 0  0.5 0.5 0  0.6 0.5 0  0.7 0.5 0  0.8 0.5 0  0.9 0.5 0  1 0.5 0  0 0.6 0  0.1 0.6 0  0.2 0.6 0  0.3 0.6 0  0.4 0.6 0  0.5 0.6 0  0.6 0.6 0  0.7 0.6 0  0.8 0.6 0  0.9 0.6 0  1 0.6 0  0 0.7 0  0.1 0.7 0  0.2 0.7 0  0.3 0.7 0  0.4 0.7 0  0.5 0.7 0  0.6 0.7 0  0.7 0.7 0  0.8 0.7 0  0.9 0.7 0  1 0.7 0  0 0.8 0  0.1 0.8 0  0.2 0.8 0  0.3 0.8 0  0.4 0.8 0  0.5 0.8 0  0.6 0.8 0  0.7 0.8 0  0.8 0.8 0  0.9 0.8 0  1 0.8 0  0 0.9 0  0.1 0.9 0  0.2 0.9 0  0.3 0.9 0  0.4 0.9 0  0.5 0.9 0  0.6 0.9 0  0.7 0.9 0  0.8 0.9 0  0.9 0.9 0  1 0.9 0  0 1 0  0.1 1 0  0.2 1 0  0.3 1 0  0.4 1 0  0.5 1 0  0.6 1 0  0.7 1 0  0.8 1 0  0.9 1 0  1 1 0  </DataArray>
</Points>
<Cells>
<DataArray  type="UInt32"  Name="connectivity"  format="ascii">0 1 12  0 11 12  1 2 13  1 12 13  2 3 14  2 13 14  3 4 15  3 14 15  4 5 16  4 15 16  5 6 17  5 16 17  6 7 18  6 17 18  7 8 19  7 18 19  8 9 20  8 19 20  9 10 21  9 20 21  11 12 23  11 22 23  12 13 24  12 23 24  13 14 25  13 24 25  14 15 26  14 25 26  15 16 27  15 26 27  16 17 28  16 27 28  17 18 29  17 28 29  18 19 30  18 29 30  19 20 31  19 30 31  20 21 32  20 31 32  22 23 34  22 33 34  23 24 35  23 34 35  24 25 36  24 35 36  25 26 37  25 36 37  26 27 38  26 37 38  27 28 39  27 38 39  28 29 40  28 39 40  29 30 41  29 40 41  30 31 42  30 41 42  31 32 43  31 42 43  33 34 45  33 44 45  34 35 46  34 45 46  35 36 47  35 46 47  36 37 48  36 47 48  37 38 49  37 48 49  38 39 50  38 49 50  39 40 51  39 50 51  40 41 52  40 51 52  41 42 53  41 52 53  42 43 54  42 53 54  44 45 56  44 55 56  45 46 57  45 56 57  46 47 58  46 57 58  47 48 59  47 58 59  48 49 60  48 59 60  49 50 61  49 60 61  50 51 62  50 61 62  51 52 63  51 62 63  52 53 64  52 63 64  53 54 65  53 64 65  55 56 67  55 66 67  56 57 68  56 67 68  57 58 69  57 68 69  58 59 70  58 69 70  59 60 71  59 70 71  60 61 72  60 71 72  61 62 73  61 72 73  62 63 74  62 73 74  63 64 75  63 74 75  64 65 76  64 75 76  66 67 78  66 77 78  67 68 79  67 78 79  68 69 80  68 79 80  69 70 81  69 80 81  70 71 82  70 81 82  71 72 83  71 82 83  72 73 84  72 83 84  73 74 85  73 84 85  74 75 86  74 85 86  75 76 87  75 86 87  77 78 89  77 88 89  78 79 90  78 89 90  79 80 91  79 90 91  80 81 92  80 91 92  81 82 93  81 92 93  82 83 94  82 93 94  83 84 95  83 94 95  84 85 96  84 95 96  85 86 97  85 96 97  86 87 98  86 97 98  88 89 100  88 99 100  89 90 101  89 100 101  90 91 102  90 101 102  91 92 103  91 102 103  92 93 104  92 103 104  93 94 105  93 104 105  94 95 106  94 105 106  95 96 107  95 106 107  96 97 108  96 107 108  97 98 109  97 108 109  99 100 111  99 110 111  100 101 112  100 111 112  101 102 113  101 112 113  102 103 114  102 113 114  103 104 115  103 114 115  104 105 116  104 115 116  105 106 117  105 116 117  106 107 118  106 117 118  107 108 119  107 118 119  108 109 120  108 119 120  </DataArray>
<DataArray  type="UInt32"  Name="offsets"  format="ascii">3 6 9 12 15 18 21 24 27 30 33 36 39 42 45 48 51 54 57 60 63 66 69 72 75 78 81 84 87 90 93 96 99 102 105 108 111 114 117 120 123 126 129 132 135 138 141 144 147 150 153 156 159 162 165 168 171 174 177 180 183 186 189 192 195 198 201 204 207 210 213 216 219 222 225 228 231 234 237 240 243 246 249 252 255 258 261 264 267 270 273 276 279 282 285 288 291 294 297 300 303 306 309 312 315 318 321 324 327 330 333 336 339 342 345 348 351 354 357 360 363 366 369 372 375 378 381 384 387 390 393 396 399 402 405 408 411 414 417 420 423 426 429 432 435 438 441 444 447 450 453 456 459 462 465 468 471 474 477 480 483 486 489 492 495 498 501 504 507 510 513 516 519 522 525 528 531 534 537 540 543 546 549 552 555 558 561 564 567 570 573 576 579 582 585 588 591 594 597 600 </DataArray>
<DataArray  type="UInt8"  Name="types"  format="ascii">5 5 5 5 5 5 5 5 5 5 5 5 5 5 5 5 5 5 5 5 5 5 5 5 5 5 5 5 5 5 5 5 5 5 5 5 5 5 5 5 5 5 5 5 5 5 5 5 5 5 5 5 5 5 5 5 5 5 5 5 5 5 5 5 5 5 5 5 5 5 5 5 5 5 5 5 5 5 5 5 5 5 5 5 5 5 5 5 5 5 5 5 5 5 5 5 5 5 5 5 5 5 5 5 5 5 5 5 5 5 5 5 5 5 5 5 5 5 5 5 5 5 5 5 5 5 5 5 5 5 5 5 5 5 5 5 5 5 5 5 5 5 5 5 5 5 5 5 5 5 5 5 5 5 5 5 5 5 5 5 5 5 5 5 5 5 5 5 5 5 5 5 5 5 5 5 5 5 5 5 5 5 5 5 5 5 5 5 5 5 5 5 5 5 5 5 5 5 5 5 </DataArray>
</Cells>
<PointData  Vectors="f_47"> 
<DataArray  type="Float64"  Name="f_47"  NumberOfComponents="3" format="ascii">0.0000000000000000e+00 0.0000000000000000e+00 0.0000000000000000e+00  0.0000000000000000e+00 0.0000000000000000e+00 0.0000000000000000e+00  0.0000000000000000e+00 0.0000000000000000e+00 0.0000000000000000e+00  0.0000000000000000e+00 0.0000000000000000e+00 0.0000000000000000e+00  0.0000000000000000e+00 0.0000000000000000e+00 0.0000000000000000e+00  0.0000000000000000e+00 0.0000000000000000e+00 0.0000000000000000e+00  0.0000000000000000e+00 0.0000000000000000e+00 0.0000000000000000e+00  0.0000000000000000e+00 0.0000000000000000e+00 0.0000000000000000e+00  0.0000000000000000e+00 0.0000000000000000e+00 0.0000000000000000e+00  0.0000000000000000e+00 0.0000000000000000e+00 0.0000000000000000e+00  0.0000000000000000e+00 0.0000000000000000e+00 0.0000000000000000e+00  0.0000000000000000e+00 0.0000000000000000e+00 0.0000000000000000e+00  -4.0042697669902200e+78 1.2484793079071669e+78 0.0000000000000000e+00  -5.7761522310644667e+78 -1.5763702549804947e+78 0.0000000000000000e+00  -4.6273067738618311e+78 -6.8443993405374031e+78 0.0000000000000000e+00  1.3715250327918980e+78 -1.4594324302501557e+79 0.0000000000000000e+00  1.4454574795708390e+79 -2.4392789713337121e+79 0.0000000000000000e+00  3.6357586358210859e+79 -3.3655494407900117e+79 0.0000000000000000e+00  6.6664065524526330e+79 -3.8027123656334771e+79 0.0000000000000000e+00  9.9542091425400630e+79 -3.0624700759274678e+79 0.0000000000000000e+00  1.2080566594993320e+80 -1.5476622262239456e+79 0.0000000000000000e+00  1.0145310999758092e+80 -1.2193174795038409e+79 0.0000000000000000e+00  0.0000000000000000e+00 0.0000000000000000e+00 0.0000000000000000e+00  -7.2460685355001663e+78 4.4153800201375768e+78 0.0000000000000000e+00  -1.2420988782475794e+79 8.1293005507935860e+76 0.0000000000000000e+00  -1.4645131007410168e+79 -9.4155559168968489e+78 0.0000000000000000e+00  -1.1294073709017892e+79 -2.4579218609476138e+79 0.0000000000000000e+00  2.2254504633775287e+78 -4.5844259432970031e+79 0.0000000000000000e+00  3.0152169332261605e+79 -7.0121475457136493e+79 0.0000000000000000e+00  7.4806688771220280e+79 -8.6091345822909932e+79 0.0000000000000000e+00  1.3211151690205690e+80 -7.7458228547721736e+79 0.0000000000000000e+00  1.7549524653101761e+80 -4.2239120525771504e+79 0.0000000000000000e+00  1.8017788205296086e+80 -3.3239869327755440e+79 0.0000000000000000e+00  0.0000000000000000e+00 0.0000000000000000e+00 0.0000000000000000e+00  -1.1258386373019829e+79 1.0540938979158579e+79 0.0000000000000000e+00  -2.1325525802016192e+79 6.1955717856357125e+78 0.0000000000000000e+00  -3.0105693184527172e+79 -5.9727044836148037e+78 0.0000000000000000e+00  -3.4765917550602219e+79 -2.6945746653398037e+79 0.0000000000000000e+00  -2.8408847386568820e+79 -6.0563247798246067e+79 0.0000000000000000e+00  -8.1673665483575338e+76 -1.0867502440419188e+80 0.0000000000000000e+00  6.1246120557586525e+79 -1.4494454096255695e+80 0.0000000000000000e+00  1.5237503841856060e+80 -1.6604200763876757e+80 0.0000000000000000e+00  2.3584491816606012e+80 -9.5086593767950465e+79 0.0000000000000000e+00  2.6252765420055937e+80 -7.4437546875426280e+79 0.0000000000000000e+00  0.0000000000000000e+00 0.0000000000000000e+00 0.0000000000000000e+00  -1.5253225374894779e+79 2.0346628369820233e+79 0.0000000000000000e+00  -3.0847091438834042e+79 1.8273756885610302e+79 0.0000000000000000e+00  -4.8590349716110957e+79 6.4340562707696184e+78 0.0000000000000000e+00  -6.9316283673326326e+79 -1.6476217296540507e+79 0.0000000000000000e+00  -8.4829616675694434e+79 -5.3541771871928934e+79 0.0000000000000000e+00  -5.3850312136914184e+79 -1.0345050811014690e+80 0.0000000000000000e+00  -1.0446862301988483e+78 -1.7907940697551273e+80 0.0000000000000000e+00  1.2781212773610863e+80 -2.1789197773059750e+80 0.0000000000000000e+00  3.2849755552880508e+80 -3.1171707289974426e+80 0.0000000000000000e+00  3.9112788003651840e+80 -1.6060603279718613e+80 0.0000000000000000e+00  0.0000000000000000e+00 0.0000000000000000e+00 0.0000000000000000e+00  -1.7889574913545042e+79 3.3706146224793144e+79 0.0000000000000000e+00  -3.7696046922001519e+79 3.6691008185466333e+79 0.0000000000000000e+00  -6.2487803946296220e+79 2.9796421379351772e+79 0.0000000000000000e+00  -9.6866084088015229e+79 1.3541094124886820e+79 0.0000000000000000e+00  -1.5068609847729825e+80 -1.9606708336398630e+79 0.0000000000000000e+00  -2.2560853649134435e+80 -5.1923724199595244e+79 0.0000000000000000e+00  3.4686960836068979e+79 2.9124135751894414e+80 0.0000000000000000e+00  2.5984161026986103e+80 8.6926623112787098e+80 0.0000000000000000e+00  2.8802956475304400e+80 -1.0352200341813911e+81 0.0000000000000000e+00  0.0000000000000000e+00 0.0000000000000000e+00 0.0000000000000000e+00  0.0000000000000000e+00 0.0000000000000000e+00 0.0000000000000000e+00  -1.8129292220407286e+79 4.9231274053801971e+79 0.0000000000000000e+00  -3.9180392157144118e+79 5.9475025664641546e+79 0.0000000000000000e+00  -6.5869761698801769e+79 6.1528337554731460e+79 0.0000000000000000e+00  -1.0155628925063393e+80 6.1804366410545023e+79 0.0000000000000000e+00  -1.4421074098529891e+80 6.1723082732323132e+79 0.0000000000000000e+00  -1.5846915492321274e+80 6.1707993291563892e+79 0.0000000000000000e+00  -1.7429347629603134e+80 1.9033081669099446e+80 0.0000000000000000e+00  2.1981232623974461e+81 7.1470142700443190e+81 0.0000000000000000e+00  3.8329372830743061e+81 1.9965451487390990e+82 0.0000000000000000e+00  0.0000000000000000e+00 0.0000000000000000e+00 0.0000000000000000e+00  0.0000000000000000e+00 0.0000000000000000e+00 0.0000000000000000e+00  -1.5731858378669896e+79 6.4481736837539840e+79 0.0000000000000000e+00  -3.4966389959217390e+79 8.2282254304002156e+79 0.0000000000000000e+00  -6.0006515337265097e+79 9.3384341320475008e+79 0.0000000000000000e+00  -9.5599058367525430e+79 1.0802121420370731e+80 0.0000000000000000e+00  -1.5151022842623377e+80 1.3431472234196694e+80 0.0000000000000000e+00  -2.6296912589995464e+80 1.8688871024312182e+80 0.0000000000000000e+00  -4.9143922810433491e+80 2.5314524367729221e+80 0.0000000000000000e+00  -1.4047259170970497e+81 -1.3666961515034739e+81 0.0000000000000000e+00  -2.7545199003188540e+82 -1.8046556302384711e+81 0.0000000000000000e+00  0.0000000000000000e+00 0.0000000000000000e+00 0.0000000000000000e+00  0.0000000000000000e+00 0.0000000000000000e+00 0.0000000000000000e+00  -1.0956167801514206e+79 7.6666978780451679e+79 0.0000000000000000e+00  -2.5152625579150962e+79 1.0053606701629708e+80 0.0000000000000000e+00  -4.3844539577884401e+79 1.1860374868243437e+80 0.0000000000000000e+00  -6.9528282850015094e+79 1.3811925196371327e+80 0.0000000000000000e+00  -1.0670857518581614e+80 1.6994040120959716e+80 0.0000000000000000e+00  -1.4848279653185002e+80 2.0643205635178836e+80 0.0000000000000000e+00  -1.3778355617029264e+80 1.6686557532447058e+80 0.0000000000000000e+00  -1.0484929614142833e+80 -1.5084941939367840e+80 0.0000000000000000e+00  -1.3877933912102718e+80 -2.2675729964713137e+81 0.0000000000000000e+00  0.0000000000000000e+00 0.0000000000000000e+00 0.0000000000000000e+00  0.0000000000000000e+00 0.0000000000000000e+00 0.0000000000000000e+00  -5.2198377828777922e+78 8.2270024868190803e+79 0.0000000000000000e+00  -1.2777005145697993e+79 1.1046483857045402e+80 0.0000000000000000e+00  -2.2218051471603832e+79 1.2966976429121665e+80 0.0000000000000000e+00  -3.2878755584200913e+79 1.5330191998660383e+80 0.0000000000000000e+00  -5.2903014552439596e+79 1.5917610877271735e+80 0.0000000000000000e+00  -8.1019648458871587e+79 2.1201128483460065e+80 0.0000000000000000e+00  -1.1321607168623225e+80 2.9937439385934508e+80 0.0000000000000000e+00  -2.1394555273664021e+79 3.6945319224165689e+80 0.0000000000000000e+00  -9.5715496311518326e+80 -1.2502730396688543e+81 0.0000000000000000e+00  0.0000000000000000e+00 0.0000000000000000e+00 0.0000000000000000e+00  0.0000000000000000e+00 0.0000000000000000e+00 0.0000000000000000e+00  -3.8057089220238555e+78 6.6926044604530772e+79 0.0000000000000000e+00  -9.3784120042315510e+78 1.0848642851457605e+80 0.0000000000000000e+00  -1.7262400086431820e+79 1.3262602259211612e+80 0.0000000000000000e+00  -2.6318356992407011e+79 1.5011517677108647e+80 0.0000000000000000e+00  0.0000000000000000e+00 0.0000000000000000e+00 0.0000000000000000e+00  0.0000000000000000e+00 0.0000000000000000e+00 0.0000000000000000e+00  0.0000000000000000e+00 0.0000000000000000e+00 0.0000000000000000e+00  0.0000000000000000e+00 0.0000000000000000e+00 0.0000000000000000e+00  0.0000000000000000e+00 0.0000000000000000e+00 0.0000000000000000e+00  0.0000000000000000e+00 0.0000000000000000e+00 0.0000000000000000e+00  </DataArray> 
</PointData> 
</Piece>
</UnstructuredGrid>
</VTKFile>