<?xml version="1.0"?>
<VTKFile type="UnstructuredGrid"  version="0.1"  >
<UnstructuredGrid>
<Piece  NumberOfPoints="121" NumberOfCells="200">
<Points>
<DataArray  type="Float64"  NumberOfComponents="3"  format="ascii">0 0 0  0.1 0 0  0.2 0 0  0.3 0 0  0.4 0 0  0.5 0 0  0.6 0 0  0.7 0 0  0.8 0 0  0.9 0 0  1 0 0  0 0.1 0  0.1 0.1 0  0.2 0.1 0  0.3 0.1 0  0.4 0.1 0  0.5 0.1 0  0.6 0.1 0  0.7 0.1 0  0.8 0.1 0  0.9 0.1 0  1 0.1 0  0 0.2 0  0.1 0.2 0  0.2 0.2 0  0.3 0.2 0  0.4 0.2 0  0.5 0.2 0  0.6 0.2 0  0.7 0.2 0  0.8 0.2 0  0.9 0.2 0  1 0.2 0  0 0.3 0  0.1 0.3 0  0.2 0.3 0  0.3 0.3 0  0.4 0.3 0  0.5 0.3 0  0.6 0.3 0  0.7 0.3 0  0.8 0.3 0  0.9 0.3 0  1 0.3 0  0 0.4 0  0.1 0.4 0  0.2 0.4 0  0.3 0.4 0  0.4 0.4 0  0.5 0.4 0  0.6 0.4 0  0.7 0.4 0  0.8 0.4 0  0.9 0.4 0  1 0.4 0  0 0.5 0  0.1 0.5 0  0.2 0.5 0  0.3 0.5 0  0.4 0.5 0  0.5 0.5 0  0.6 0.5 0  0.7 0.5 0  0.8 0.5 0  0.9 0.5 0  1 0.5 0  0 0.6 0  0.1 0.6 0  0.2 0.6 0  0.3 0.6 0  0.4 0.6 0  0.5 0.6 0  0.6 0.6 0  0.7 0.6 0  0.8 0.6 0  0.9 0.6 0  1 0.6 0  0 0.7 0  0.1 0.7 0  0.2 0.7 0  0.3 0.7 0  0.4 0.7 0  0.5 0.7 0  0.6 0.7 0  0.7 0.7 0  0.8 0.7 0  0.9 0.7 0  1 0.7 0  0 0.8 0  0.1 0.8 0  0.2 0.8 0  0.3 0.8 0  0.4 0.8 0  0.5 0.8 0  0.6 0.8 0  0.7 0.8 0  0.8 0.8 0  0.9 0.8 0  1 0.8 0  0 0.9 0  0.1 0.9 0  0.2 0.9 0  0.3 0.9 0  0.4 0.9 0  0.5 0.9 0  0.6 0.9 0  0.7 0.9 0  0.8 0.9 0  0.9 0.9 0  1 0.9 0  0 1 0  0.1 1 0  0.2 1 0  0.3 1 0  0.4 1 0  0.5 1 0  0.6 1 0  0.7 1 0  0.8 1 0  0.9 1 0  1 1 0  </DataArray>
</Points>
<Cells>
<DataArray  type="UInt32"  Name="connectivity"  format="ascii">0 1 12  0 11 12  1 2 13  1 12 13  2 3 14  2 13 14  3 4 15  3 14 15  4 5 16  4 15 16  5 6 17  5 16 17  6 7 18  6 17 18  7 8 19  7 18 19  8 9 20  8 19 20  9 10 21  9 20 21  11 12 23  11 22 23  12 13 24  12 23 24  13 14 25  13 24 25  14 15 26  14 25 26  15 16 27  15 26 27  16 17 28  16 27 28  17 18 29  17 28 29  18 19 30  18 29 30  19 20 31  19 30 31  20 21 32  20 31 32  22 23 34  22 33 34  23 24 35  23 34 35  24 25 36  24 35 36  25 26 37  25 36 37  26 27 38  26 37 38  27 28 39  27 38 39  28 29 40  28 39 40  29 30 41  29 40 41  30 31 42  30 41 42  31 32 43  31 42 43  33 34 45  33 44 45  34 35 46  34 45 46  35 36 47  35 46 47  36 37 48  36 47 48  37 38 49  37 48 49  38 39 50  38 49 50  39 40 51  39 50 51  40 41 52  40 51 52  41 42 53  41 52 53  42 43 54  42 53 54  44 45 56  44 55 56  45 46 57  45 56 57  46 47 58  46 57 58  47 48 59  47 58 59  48 49 60  48 59 60  49 50 61  49 60 61  50 51 62  50 61 62  51 52 63  51 62 63  52 53 64  52 63 64  53 54 65  53 64 65  55 56 67  55 66 67  56 57 68  56 67 68  57 58 69  57 68 69  58 59 70  58 69 70  59 60 71  59 70 71  60 61 72  60 71 72  61 62 73  61 72 73  62 63 74  62 73 74  63 64 75  63 74 75  64 65 76  64 75 76  66 67 78  66 77 78  67 68 79  67 78 79  68 69 80  68 79 80  69 70 81  69 80 81  70 71 82  70 81 82  71 72 83  71 82 83  72 73 84  72 83 84  73 74 85  73 84 85  74 75 86  74 85 86  75 76 87  75 86 87  77 78 89  77 88 89  78 79 90  78 89 90  79 80 91  79 90 91  80 81 92  80 91 92  81 82 93  81 92 93  82 83 94  82 93 94  83 84 95  83 94 95  84 85 96  84 95 96  85 86 97  85 96 97  86 87 98  86 97 98  88 89 100  88 99 100  89 90 101  89 100 101  90 91 102  90 101 102  91 92 103  91 102 103  92 93 104  92 103 104  93 94 105  93 104 105  94 95 106  94 105 106  95 96 107  95 106 107  96 97 108  96 107 108  97 98 109  97 108 109  99 100 111  99 110 111  100 101 112  100 111 112  101 102 113  101 112 113  102 103 114  102 113 114  103 104 115  103 114 115  104 105 116  104 115 116  105 106 117  105 116 117  106 107 118  106 117 118  107 108 119  107 118 119  108 109 120  108 119 120  </DataArray>
<DataArray  type="UInt32"  Name="offsets"  format="ascii">3 6 9 12 15 18 21 24 27 30 33 36 39 42 45 48 51 54 57 60 63 66 69 72 75 78 81 84 87 90 93 96 99 102 105 108 111 114 117 120 123 126 129 132 135 138 141 144 147 150 153 156 159 162 165 168 171 174 177 180 183 186 189 192 195 198 201 204 207 210 213 216 219 222 225 228 231 234 237 240 243 246 249 252 255 258 261 264 267 270 273 276 279 282 285 288 291 294 297 300 303 306 309 312 315 318 321 324 327 330 333 336 339 342 345 348 351 354 357 360 363 366 369 372 375 378 381 384 387 390 393 396 399 402 405 408 411 414 417 420 423 426 429 432 435 438 441 444 447 450 453 456 459 462 465 468 471 474 477 480 483 486 489 492 495 498 501 504 507 510 513 516 519 522 525 528 531 534 537 540 543 546 549 552 555 558 561 564 567 570 573 576 579 582 585 588 591 594 597 600 </DataArray>
<DataArray  type="UInt8"  Name="types"  format="ascii">5 5 5 5 5 5 5 5 5 5 5 5 5 5 5 5 5 5 5 5 5 5 5 5 5 5 5 5 5 5 5 5 5 5 5 5 5 5 5 5 5 5 5 5 5 5 5 5 5 5 5 5 5 5 5 5 5 5 5 5 5 5 5 5 5 5 5 5 5 5 5 5 5 5 5 5 5 5 5 5 5 5 5 5 5 5 5 5 5 5 5 5 5 5 5 5 5 5 5 5 5 5 5 5 5 5 5 5 5 5 5 5 5 5 5 5 5 5 5 5 5 5 5 5 5 5 5 5 5 5 5 5 5 5 5 5 5 5 5 5 5 5 5 5 5 5 5 5 5 5 5 5 5 5 5 5 5 5 5 5 5 5 5 5 5 5 5 5 5 5 5 5 5 5 5 5 5 5 5 5 5 5 5 5 5 5 5 5 5 5 5 5 5 5 5 5 5 5 5 5 </DataArray>
</Cells>
<PointData  Vectors="f_22"> 
<DataArray  type="Float64"  Name="f_22"  NumberOfComponents="3" format="ascii">0.0000000000000000e+00 0.0000000000000000e+00 0.0000000000000000e+00  0.0000000000000000e+00 0.0000000000000000e+00 0.0000000000000000e+00  0.0000000000000000e+00 0.0000000000000000e+00 0.0000000000000000e+00  0.0000000000000000e+00 0.0000000000000000e+00 0.0000000000000000e+00  0.0000000000000000e+00 0.0000000000000000e+00 0.0000000000000000e+00  0.0000000000000000e+00 0.0000000000000000e+00 0.0000000000000000e+00  0.0000000000000000e+00 0.0000000000000000e+00 0.0000000000000000e+00  0.0000000000000000e+00 0.0000000000000000e+00 0.0000000000000000e+00  0.0000000000000000e+00 0.0000000000000000e+00 0.0000000000000000e+00  0.0000000000000000e+00 0.0000000000000000e+00 0.0000000000000000e+00  0.0000000000000000e+00 0.0000000000000000e+00 0.0000000000000000e+00  0.0000000000000000e+00 0.0000000000000000e+00 0.0000000000000000e+00  6.3110614134670269e-03 -7.8225079891543602e-03 0.0000000000000000e+00  3.8662709988106059e-02 -2.3867167213774892e-02 0.0000000000000000e+00  8.8596309556022629e-02 -3.1108684195372747e-02 0.0000000000000000e+00  1.4547373996326707e-01 -3.3733042470146565e-02 0.0000000000000000e+00  2.0516701722890054e-01 -3.5315534229616967e-02 0.0000000000000000e+00  2.6731957780317100e-01 -3.7533135918784773e-02 0.0000000000000000e+00  3.3334122925378529e-01 -4.0938973093672393e-02 0.0000000000000000e+00  4.0486569275313694e-01 -4.5072530272686047e-02 0.0000000000000000e+00  4.8092347420220605e-01 -4.9253976387844456e-02 0.0000000000000000e+00  5.5249063890770411e-01 -5.1249075338629185e-02 0.0000000000000000e+00  0.0000000000000000e+00 0.0000000000000000e+00 0.0000000000000000e+00  1.3779083487687640e-02 -3.2767549822079328e-02 0.0000000000000000e+00  5.8169229142935916e-02 -7.4422380262308782e-02 0.0000000000000000e+00  1.2134800219695643e-01 -9.3635087902887118e-02 0.0000000000000000e+00  1.9184393502896774e-01 -1.0033604474388169e-01 0.0000000000000000e+00  2.6472570081156765e-01 -1.0365628278451314e-01 0.0000000000000000e+00  3.3910755698731299e-01 -1.0848613875550299e-01 0.0000000000000000e+00  4.1658600123170025e-01 -1.1732618607625415e-01 0.0000000000000000e+00  5.0056859710596191e-01 -1.3089144287082399e-01 0.0000000000000000e+00  5.9209559406208268e-01 -1.4578814262052106e-01 0.0000000000000000e+00  6.8532510865233842e-01 -1.5114872175420030e-01 0.0000000000000000e+00  0.0000000000000000e+00 0.0000000000000000e+00 0.0000000000000000e+00  1.4514457056811737e-02 -6.5901743761988402e-02 0.0000000000000000e+00  6.0953609213186488e-02 -1.3529184351840406e-01 0.0000000000000000e+00  1.2592041039876292e-01 -1.6684283086789767e-01 0.0000000000000000e+00  1.9731237931882123e-01 -1.7746034907205868e-01 0.0000000000000000e+00  2.6957690598158546e-01 -1.8166642082360446e-01 0.0000000000000000e+00  3.4114096853470610e-01 -1.8728532446191537e-01 0.0000000000000000e+00  4.1389689344391861e-01 -1.9855576403992653e-01 0.0000000000000000e+00  4.9093951738348574e-01 -2.1584874277202282e-01 0.0000000000000000e+00  5.8459612480757617e-01 -2.3690146673590243e-01 0.0000000000000000e+00  6.8214055999938483e-01 -2.6624598157971641e-01 0.0000000000000000e+00  0.0000000000000000e+00 0.0000000000000000e+00 0.0000000000000000e+00  1.5422935123308062e-02 -9.5140027219784457e-02 0.0000000000000000e+00  6.2237092736076617e-02 -1.8802980196050112e-01 0.0000000000000000e+00  1.2718526472764188e-01 -2.2807211523920040e-01 0.0000000000000000e+00  1.9830279134649698e-01 -2.3978516960299789e-01 0.0000000000000000e+00  2.6853536069864392e-01 -2.4126099448249994e-01 0.0000000000000000e+00  3.3325947184584465e-01 -2.4346293038917458e-01 0.0000000000000000e+00  3.9263687807660458e-01 -2.5772976574023310e-01 0.0000000000000000e+00  4.5241010939706178e-01 -2.9223193332639402e-01 0.0000000000000000e+00  5.0737879425928234e-01 -3.4596382502048123e-01 0.0000000000000000e+00  6.5243078196728044e-01 -4.2096184589567692e-01 0.0000000000000000e+00  0.0000000000000000e+00 0.0000000000000000e+00 0.0000000000000000e+00  1.5568624626613237e-02 -1.3344436456017733e-01 0.0000000000000000e+00  6.1443552402687021e-02 -2.5814445432487743e-01 0.0000000000000000e+00  1.2646414904721634e-01 -3.1558657326640654e-01 0.0000000000000000e+00  1.9960956470096158e-01 -3.3332248215636767e-01 0.0000000000000000e+00  2.6941810796274723e-01 -3.2925382967030509e-01 0.0000000000000000e+00  3.2463725944647703e-01 -3.1935863062535885e-01 0.0000000000000000e+00  3.6357184952867588e-01 -3.2230091103889230e-01 0.0000000000000000e+00  3.9559137833472835e-01 -3.4848861320109359e-01 0.0000000000000000e+00  4.1085103121748490e-01 -3.7292386674021899e-01 0.0000000000000000e+00  0.0000000000000000e+00 0.0000000000000000e+00 0.0000000000000000e+00  0.0000000000000000e+00 0.0000000000000000e+00 0.0000000000000000e+00  1.6389372587459840e-02 -1.5857049326776190e-01 0.0000000000000000e+00  6.1164833175396879e-02 -2.9633752135820396e-01 0.0000000000000000e+00  1.2487478292972361e-01 -3.5591190852751398e-01 0.0000000000000000e+00  1.9890216598829147e-01 -3.7092953621084673e-01 0.0000000000000000e+00  2.6633607152334132e-01 -3.5064439793958913e-01 0.0000000000000000e+00  3.0258152469794586e-01 -3.1158938965427302e-01 0.0000000000000000e+00  3.0783543744861808e-01 -3.0227288689314191e-01 0.0000000000000000e+00  3.0895699174946240e-01 -3.4547504856396566e-01 0.0000000000000000e+00  3.2587979598728201e-01 -3.9526467662269443e-01 0.0000000000000000e+00  0.0000000000000000e+00 0.0000000000000000e+00 0.0000000000000000e+00  0.0000000000000000e+00 0.0000000000000000e+00 0.0000000000000000e+00  1.5126444779028957e-02 -1.9776371391826372e-01 0.0000000000000000e+00  5.1381815187901997e-02 -3.7205530514829299e-01 0.0000000000000000e+00  1.0940888726671898e-01 -4.7236139460098941e-01 0.0000000000000000e+00  1.8483095589932166e-01 -5.1468750975639943e-01 0.0000000000000000e+00  2.4017857039797755e-01 -4.6207259417067670e-01 0.0000000000000000e+00  2.3770124401110440e-01 -3.7316017427303860e-01 0.0000000000000000e+00  2.1228099160728020e-01 -3.5512888430976614e-01 0.0000000000000000e+00  1.9950869694314721e-01 -3.8025858070670032e-01 0.0000000000000000e+00  1.7959131542846271e-01 -3.9475473148693246e-01 0.0000000000000000e+00  0.0000000000000000e+00 0.0000000000000000e+00 0.0000000000000000e+00  0.0000000000000000e+00 0.0000000000000000e+00 0.0000000000000000e+00  1.3375618001558969e-02 -2.1593211244187233e-01 0.0000000000000000e+00  4.5727746170950656e-02 -3.8992864114052017e-01 0.0000000000000000e+00  9.8165081062961873e-02 -4.8115637778907761e-01 0.0000000000000000e+00  1.5620358482416258e-01 -4.9175652628202471e-01 0.0000000000000000e+00  1.7752181381704282e-01 -3.4527981464349605e-01 0.0000000000000000e+00  1.4274125735423737e-01 -2.1394090860631507e-01 0.0000000000000000e+00  9.9068085981091167e-02 -2.0562534971973523e-01 0.0000000000000000e+00  5.1383102376693079e-02 -2.7690711443968541e-01 0.0000000000000000e+00  -4.8160107274749189e-02 -3.0909831785237635e-01 0.0000000000000000e+00  0.0000000000000000e+00 0.0000000000000000e+00 0.0000000000000000e+00  0.0000000000000000e+00 0.0000000000000000e+00 0.0000000000000000e+00  1.0956794444656259e-02 -2.4497503518770145e-01 0.0000000000000000e+00  2.9945320191519697e-02 -4.4300162280361594e-01 0.0000000000000000e+00  5.1891919742185759e-02 -5.8279698761085741e-01 0.0000000000000000e+00  7.5139283001577933e-02 -6.5881816946099703e-01 0.0000000000000000e+00  7.8515896953879435e-02 -4.9915134670254518e-01 0.0000000000000000e+00  2.0645930092461288e-02 -3.8896415056687628e-01 0.0000000000000000e+00  4.9431158979065751e-03 -3.9586410802555505e-01 0.0000000000000000e+00  -3.5883301591348588e-02 -3.7327748722520543e-01 0.0000000000000000e+00  -1.9535422702677954e-01 -2.4764913728667035e-01 0.0000000000000000e+00  0.0000000000000000e+00 0.0000000000000000e+00 0.0000000000000000e+00  0.0000000000000000e+00 0.0000000000000000e+00 0.0000000000000000e+00  8.3726967476597716e-03 -2.5513873572143003e-01 0.0000000000000000e+00  2.0029972657468170e-02 -4.3927929453311387e-01 0.0000000000000000e+00  3.0632584173136228e-02 -5.5887922774539411e-01 0.0000000000000000e+00  3.3603525967486184e-02 -5.7943922771171263e-01 0.0000000000000000e+00  0.0000000000000000e+00 0.0000000000000000e+00 0.0000000000000000e+00  0.0000000000000000e+00 0.0000000000000000e+00 0.0000000000000000e+00  0.0000000000000000e+00 0.0000000000000000e+00 0.0000000000000000e+00  0.0000000000000000e+00 0.0000000000000000e+00 0.0000000000000000e+00  0.0000000000000000e+00 0.0000000000000000e+00 0.0000000000000000e+00  0.0000000000000000e+00 0.0000000000000000e+00 0.0000000000000000e+00  </DataArray> 
</PointData> 
</Piece>
</UnstructuredGrid>
</VTKFile>