<?xml version="1.0"?>
<VTKFile type="UnstructuredGrid"  version="0.1"  >
<UnstructuredGrid>
<Piece  NumberOfPoints="121" NumberOfCells="200">
<Points>
<DataArray  type="Float64"  NumberOfComponents="3"  format="ascii">0 0 0  0.1 0 0  0.2 0 0  0.3 0 0  0.4 0 0  0.5 0 0  0.6 0 0  0.7 0 0  0.8 0 0  0.9 0 0  1 0 0  0 0.1 0  0.1 0.1 0  0.2 0.1 0  0.3 0.1 0  0.4 0.1 0  0.5 0.1 0  0.6 0.1 0  0.7 0.1 0  0.8 0.1 0  0.9 0.1 0  1 0.1 0  0 0.2 0  0.1 0.2 0  0.2 0.2 0  0.3 0.2 0  0.4 0.2 0  0.5 0.2 0  0.6 0.2 0  0.7 0.2 0  0.8 0.2 0  0.9 0.2 0  1 0.2 0  0 0.3 0  0.1 0.3 0  0.2 0.3 0  0.3 0.3 0  0.4 0.3 0  0.5 0.3 0  0.6 0.3 0  0.7 0.3 0  0.8 0.3 0  0.9 0.3 0  1 0.3 0  0 0.4 0  0.1 0.4 0  0.2 0.4 0  0.3 0.4 0  0.4 0.4 0  0.5 0.4 0  0.6 0.4 0  0.7 0.4 0  0.8 0.4 0  0.9 0.4 0  1 0.4 0  0 0.5 0  0.1 0.5 0  0.2 0.5 0  0.3 0.5 0  0.4 0.5 0  0.5 0.5 0  0.6 0.5 0  0.7 0.5 0  0.8 0.5 0  0.9 0.5 0  1 0.5 0  0 0.6 0  0.1 0.6 0  0.2 0.6 0  0.3 0.6 0  0.4 0.6 0  0.5 0.6 0  0.6 0.6 0  0.7 0.6 0  0.8 0.6 0  0.9 0.6 0  1 0.6 0  0 0.7 0  0.1 0.7 0  0.2 0.7 0  0.3 0.7 0  0.4 0.7 0  0.5 0.7 0  0.6 0.7 0  0.7 0.7 0  0.8 0.7 0  0.9 0.7 0  1 0.7 0  0 0.8 0  0.1 0.8 0  0.2 0.8 0  0.3 0.8 0  0.4 0.8 0  0.5 0.8 0  0.6 0.8 0  0.7 0.8 0  0.8 0.8 0  0.9 0.8 0  1 0.8 0  0 0.9 0  0.1 0.9 0  0.2 0.9 0  0.3 0.9 0  0.4 0.9 0  0.5 0.9 0  0.6 0.9 0  0.7 0.9 0  0.8 0.9 0  0.9 0.9 0  1 0.9 0  0 1 0  0.1 1 0  0.2 1 0  0.3 1 0  0.4 1 0  0.5 1 0  0.6 1 0  0.7 1 0  0.8 1 0  0.9 1 0  1 1 0  </DataArray>
</Points>
<Cells>
<DataArray  type="UInt32"  Name="connectivity"  format="ascii">0 1 12  0 11 12  1 2 13  1 12 13  2 3 14  2 13 14  3 4 15  3 14 15  4 5 16  4 15 16  5 6 17  5 16 17  6 7 18  6 17 18  7 8 19  7 18 19  8 9 20  8 19 20  9 10 21  9 20 21  11 12 23  11 22 23  12 13 24  12 23 24  13 14 25  13 24 25  14 15 26  14 25 26  15 16 27  15 26 27  16 17 28  16 27 28  17 18 29  17 28 29  18 19 30  18 29 30  19 20 31  19 30 31  20 21 32  20 31 32  22 23 34  22 33 34  23 24 35  23 34 35  24 25 36  24 35 36  25 26 37  25 36 37  26 27 38  26 37 38  27 28 39  27 38 39  28 29 40  28 39 40  29 30 41  29 40 41  30 31 42  30 41 42  31 32 43  31 42 43  33 34 45  33 44 45  34 35 46  34 45 46  35 36 47  35 46 47  36 37 48  36 47 48  37 38 49  37 48 49  38 39 50  38 49 50  39 40 51  39 50 51  40 41 52  40 51 52  41 42 53  41 52 53  42 43 54  42 53 54  44 45 56  44 55 56  45 46 57  45 56 57  46 47 58  46 57 58  47 48 59  47 58 59  48 49 60  48 59 60  49 50 61  49 60 61  50 51 62  50 61 62  51 52 63  51 62 63  52 53 64  52 63 64  53 54 65  53 64 65  55 56 67  55 66 67  56 57 68  56 67 68  57 58 69  57 68 69  58 59 70  58 69 70  59 60 71  59 70 71  60 61 72  60 71 72  61 62 73  61 72 73  62 63 74  62 73 74  63 64 75  63 74 75  64 65 76  64 75 76  66 67 78  66 77 78  67 68 79  67 78 79  68 69 80  68 79 80  69 70 81  69 80 81  70 71 82  70 81 82  71 72 83  71 82 83  72 73 84  72 83 84  73 74 85  73 84 85  74 75 86  74 85 86  75 76 87  75 86 87  77 78 89  77 88 89  78 79 90  78 89 90  79 80 91  79 90 91  80 81 92  80 91 92  81 82 93  81 92 93  82 83 94  82 93 94  83 84 95  83 94 95  84 85 96  84 95 96  85 86 97  85 96 97  86 87 98  86 97 98  88 89 100  88 99 100  89 90 101  89 100 101  90 91 102  90 101 102  91 92 103  91 102 103  92 93 104  92 103 104  93 94 105  93 104 105  94 95 106  94 105 106  95 96 107  95 106 107  96 97 108  96 107 108  97 98 109  97 108 109  99 100 111  99 110 111  100 101 112  100 111 112  101 102 113  101 112 113  102 103 114  102 113 114  103 104 115  103 114 115  104 105 116  104 115 116  105 106 117  105 116 117  106 107 118  106 117 118  107 108 119  107 118 119  108 109 120  108 119 120  </DataArray>
<DataArray  type="UInt32"  Name="offsets"  format="ascii">3 6 9 12 15 18 21 24 27 30 33 36 39 42 45 48 51 54 57 60 63 66 69 72 75 78 81 84 87 90 93 96 99 102 105 108 111 114 117 120 123 126 129 132 135 138 141 144 147 150 153 156 159 162 165 168 171 174 177 180 183 186 189 192 195 198 201 204 207 210 213 216 219 222 225 228 231 234 237 240 243 246 249 252 255 258 261 264 267 270 273 276 279 282 285 288 291 294 297 300 303 306 309 312 315 318 321 324 327 330 333 336 339 342 345 348 351 354 357 360 363 366 369 372 375 378 381 384 387 390 393 396 399 402 405 408 411 414 417 420 423 426 429 432 435 438 441 444 447 450 453 456 459 462 465 468 471 474 477 480 483 486 489 492 495 498 501 504 507 510 513 516 519 522 525 528 531 534 537 540 543 546 549 552 555 558 561 564 567 570 573 576 579 582 585 588 591 594 597 600 </DataArray>
<DataArray  type="UInt8"  Name="types"  format="ascii">5 5 5 5 5 5 5 5 5 5 5 5 5 5 5 5 5 5 5 5 5 5 5 5 5 5 5 5 5 5 5 5 5 5 5 5 5 5 5 5 5 5 5 5 5 5 5 5 5 5 5 5 5 5 5 5 5 5 5 5 5 5 5 5 5 5 5 5 5 5 5 5 5 5 5 5 5 5 5 5 5 5 5 5 5 5 5 5 5 5 5 5 5 5 5 5 5 5 5 5 5 5 5 5 5 5 5 5 5 5 5 5 5 5 5 5 5 5 5 5 5 5 5 5 5 5 5 5 5 5 5 5 5 5 5 5 5 5 5 5 5 5 5 5 5 5 5 5 5 5 5 5 5 5 5 5 5 5 5 5 5 5 5 5 5 5 5 5 5 5 5 5 5 5 5 5 5 5 5 5 5 5 5 5 5 5 5 5 5 5 5 5 5 5 5 5 5 5 5 5 </DataArray>
</Cells>
<PointData  Vectors="f_22"> 
<DataArray  type="Float64"  Name="f_22"  NumberOfComponents="3" format="ascii">0.0000000000000000e+00 0.0000000000000000e+00 0.0000000000000000e+00  0.0000000000000000e+00 0.0000000000000000e+00 0.0000000000000000e+00  0.0000000000000000e+00 0.0000000000000000e+00 0.0000000000000000e+00  0.0000000000000000e+00 0.0000000000000000e+00 0.0000000000000000e+00  0.0000000000000000e+00 0.0000000000000000e+00 0.0000000000000000e+00  0.0000000000000000e+00 0.0000000000000000e+00 0.0000000000000000e+00  0.0000000000000000e+00 0.0000000000000000e+00 0.0000000000000000e+00  0.0000000000000000e+00 0.0000000000000000e+00 0.0000000000000000e+00  0.0000000000000000e+00 0.0000000000000000e+00 0.0000000000000000e+00  0.0000000000000000e+00 0.0000000000000000e+00 0.0000000000000000e+00  0.0000000000000000e+00 0.0000000000000000e+00 0.0000000000000000e+00  0.0000000000000000e+00 0.0000000000000000e+00 0.0000000000000000e+00  -1.6389301687774142e-02 1.5260036190715859e-02 0.0000000000000000e+00  -2.4931635680408740e-02 4.0238513752737367e-03 0.0000000000000000e+00  -1.5482880452969439e-02 -5.1224881865174843e-03 0.0000000000000000e+00  4.7997222873274693e-03 -9.6119709637708124e-03 0.0000000000000000e+00  3.0202095783462203e-02 -1.2080739416849643e-02 0.0000000000000000e+00  5.9331389187830458e-02 -1.5166633035093574e-02 0.0000000000000000e+00  9.4489304749373976e-02 -2.0885931432461490e-02 0.0000000000000000e+00  1.4073527061270452e-01 -3.0586329257243722e-02 0.0000000000000000e+00  2.0506760331214938e-01 -4.4534435819209434e-02 0.0000000000000000e+00  2.7408455335266568e-01 -5.9754097228183492e-02 0.0000000000000000e+00  0.0000000000000000e+00 0.0000000000000000e+00 0.0000000000000000e+00  -1.1150284087646400e-02 2.8611039161900206e-02 0.0000000000000000e+00  -9.1286941602429957e-03 -3.0469672750974945e-03 0.0000000000000000e+00  1.3067321088626831e-02 -2.8528924996664585e-02 0.0000000000000000e+00  4.6947665326095747e-02 -4.1018678977331358e-02 0.0000000000000000e+00  8.5477721837737691e-02 -4.6999690560880471e-02 0.0000000000000000e+00  1.2581601042208804e-01 -5.3438956194465231e-02 0.0000000000000000e+00  1.6911369014893640e-01 -6.6154193858426108e-02 0.0000000000000000e+00  2.2010322582536918e-01 -8.9628094276189729e-02 0.0000000000000000e+00  2.8663092149265218e-01 -1.2411229071112906e-01 0.0000000000000000e+00  3.5802245721850989e-01 -1.6060897800609253e-01 0.0000000000000000e+00  0.0000000000000000e+00 0.0000000000000000e+00 0.0000000000000000e+00  -8.9469053603397526e-03 3.4923212288331923e-02 0.0000000000000000e+00  -3.0393631853882471e-03 -1.9289118951314393e-02 0.0000000000000000e+00  2.2554347371193825e-02 -6.1077638958121259e-02 0.0000000000000000e+00  5.8637720682009925e-02 -8.0287425920021790e-02 0.0000000000000000e+00  9.6910264365768842e-02 -8.7064032522731705e-02 0.0000000000000000e+00  1.3256968240882530e-01 -9.2547234490872973e-02 0.0000000000000000e+00  1.6555759466840361e-01 -1.0662154112766538e-01 0.0000000000000000e+00  2.0053571410533361e-01 -1.3543884463310907e-01 0.0000000000000000e+00  2.4272209962952496e-01 -1.8456148369121742e-01 0.0000000000000000e+00  2.8859364998131198e-01 -2.5188351138895337e-01 0.0000000000000000e+00  0.0000000000000000e+00 0.0000000000000000e+00 0.0000000000000000e+00  -7.8704546208063029e-03 4.0109486041545656e-02 0.0000000000000000e+00  -2.4242089694761739e-04 -3.5588642142559308e-02 0.0000000000000000e+00  2.6639414952111716e-02 -9.2374993280273876e-02 0.0000000000000000e+00  6.3076229607105683e-02 -1.1688060067660909e-01 0.0000000000000000e+00  9.8177262554185338e-02 -1.2062953294285497e-01 0.0000000000000000e+00  1.2312971430430289e-01 -1.1847584160913767e-01 0.0000000000000000e+00  1.3693016998099256e-01 -1.2736259809137021e-01 0.0000000000000000e+00  1.4423980834663100e-01 -1.5971296758143705e-01 0.0000000000000000e+00  1.3926952608008986e-01 -2.2184367245229533e-01 0.0000000000000000e+00  1.1567572691028589e-01 -2.6588745537171082e-01 0.0000000000000000e+00  0.0000000000000000e+00 0.0000000000000000e+00 0.0000000000000000e+00  -6.4723558170237004e-03 4.1801339032264177e-02 0.0000000000000000e+00  2.3438697903452751e-03 -5.7247223159546085e-02 0.0000000000000000e+00  3.0299445610568208e-02 -1.2987674816624609e-01 0.0000000000000000e+00  6.6843587352155273e-02 -1.5715887970410802e-01 0.0000000000000000e+00  9.5329863996163097e-02 -1.4868757515737918e-01 0.0000000000000000e+00  1.0179992462433399e-01 -1.2603699955678355e-01 0.0000000000000000e+00  8.4116655406498556e-02 -1.2002525147501696e-01 0.0000000000000000e+00  6.3956223286527114e-02 -1.4796969669613458e-01 0.0000000000000000e+00  -2.1762396057146843e-02 -1.7002788142384676e-01 0.0000000000000000e+00  0.0000000000000000e+00 0.0000000000000000e+00 0.0000000000000000e+00  0.0000000000000000e+00 0.0000000000000000e+00 0.0000000000000000e+00  -5.0569579807720789e-03 4.4057217129025231e-02 0.0000000000000000e+00  4.9821518919473968e-03 -7.3248634785233760e-02 0.0000000000000000e+00  3.2378500311925580e-02 -1.5879558004658370e-01 0.0000000000000000e+00  6.4466518077301638e-02 -1.8559876011224810e-01 0.0000000000000000e+00  7.7136996554150628e-02 -1.5390474579750041e-01 0.0000000000000000e+00  5.5314361435517247e-02 -9.8772482339792939e-02 0.0000000000000000e+00  -7.5487308911608621e-03 -7.7675853592377872e-02 0.0000000000000000e+00  -2.8036155434711135e-02 -1.0030512642050730e-01 0.0000000000000000e+00  -2.3429783839314414e-01 -6.6470355052230298e-02 0.0000000000000000e+00  0.0000000000000000e+00 0.0000000000000000e+00 0.0000000000000000e+00  0.0000000000000000e+00 0.0000000000000000e+00 0.0000000000000000e+00  -2.6780075216020372e-03 4.2117164046913610e-02 0.0000000000000000e+00  6.5739599134114514e-03 -9.5868505066251677e-02 0.0000000000000000e+00  2.9113658884444241e-02 -1.9620255597766342e-01 0.0000000000000000e+00  5.0376828738253152e-02 -2.1416748391298199e-01 0.0000000000000000e+00  3.7866659993461810e-02 -1.3543423620650857e-01 0.0000000000000000e+00  -1.5863501298120218e-02 -3.5176520756598918e-02 0.0000000000000000e+00  -1.3505844524475524e-01 -7.2197920097202741e-03 0.0000000000000000e+00  -1.2399805056417744e-01 -1.5511687572963919e-02 0.0000000000000000e+00  -4.9081344771426016e-01 4.2574809902496187e-02 0.0000000000000000e+00  0.0000000000000000e+00 0.0000000000000000e+00 0.0000000000000000e+00  0.0000000000000000e+00 0.0000000000000000e+00 0.0000000000000000e+00  -7.1059742071925423e-04 4.0536136619801190e-02 0.0000000000000000e+00  7.6989387864924560e-03 -1.0718158358633373e-01 0.0000000000000000e+00  2.1969715928040114e-02 -2.1029941146946832e-01 0.0000000000000000e+00  2.5264511447054942e-02 -2.0696766464150904e-01 0.0000000000000000e+00  -1.3818192765201118e-02 -7.1714250514532105e-02 0.0000000000000000e+00  -9.2946121617206293e-02 5.8739234229914991e-02 0.0000000000000000e+00  -2.6177448480359777e-01 9.8770611991753285e-02 0.0000000000000000e+00  -2.2398168548244596e-01 1.1914809073581116e-01 0.0000000000000000e+00  -7.5454496821214057e-01 1.1770241940790846e-01 0.0000000000000000e+00  0.0000000000000000e+00 0.0000000000000000e+00 0.0000000000000000e+00  0.0000000000000000e+00 0.0000000000000000e+00 0.0000000000000000e+00  3.0478297704167744e-03 3.3905793990658635e-02 0.0000000000000000e+00  1.2194989236309422e-02 -1.2006947803233012e-01 0.0000000000000000e+00  1.8889028287780541e-02 -2.2202151699430445e-01 0.0000000000000000e+00  1.2231444173305012e-02 -1.9196196599298571e-01 0.0000000000000000e+00  -3.7697934925587769e-02 7.2431858062736998e-03 0.0000000000000000e+00  -1.2159727674379595e-01 1.7210172423963965e-01 0.0000000000000000e+00  -2.7361000919975104e-01 2.6064518567287942e-01 0.0000000000000000e+00  -3.1006703326276103e-01 2.9684820792969524e-01 0.0000000000000000e+00  -9.4041351447218069e-01 1.3984747357130989e-01 0.0000000000000000e+00  0.0000000000000000e+00 0.0000000000000000e+00 0.0000000000000000e+00  0.0000000000000000e+00 0.0000000000000000e+00 0.0000000000000000e+00  6.4558684926378914e-03 2.2924027252930246e-02 0.0000000000000000e+00  1.6113957061225259e-02 -1.2667727898432482e-01 0.0000000000000000e+00  2.2376885534580743e-02 -2.2512471613504317e-01 0.0000000000000000e+00  1.8343477696080891e-02 -1.7761210613891015e-01 0.0000000000000000e+00  0.0000000000000000e+00 0.0000000000000000e+00 0.0000000000000000e+00  0.0000000000000000e+00 0.0000000000000000e+00 0.0000000000000000e+00  0.0000000000000000e+00 0.0000000000000000e+00 0.0000000000000000e+00  0.0000000000000000e+00 0.0000000000000000e+00 0.0000000000000000e+00  0.0000000000000000e+00 0.0000000000000000e+00 0.0000000000000000e+00  0.0000000000000000e+00 0.0000000000000000e+00 0.0000000000000000e+00  </DataArray> 
</PointData> 
</Piece>
</UnstructuredGrid>
</VTKFile>