<?xml version="1.0"?>
<VTKFile type="UnstructuredGrid"  version="0.1"  >
<UnstructuredGrid>
<Piece  NumberOfPoints="121" NumberOfCells="200">
<Points>
<DataArray  type="Float64"  NumberOfComponents="3"  format="ascii">0 0 0  0.1 0 0  0.2 0 0  0.3 0 0  0.4 0 0  0.5 0 0  0.6 0 0  0.7 0 0  0.8 0 0  0.9 0 0  1 0 0  0 0.1 0  0.1 0.1 0  0.2 0.1 0  0.3 0.1 0  0.4 0.1 0  0.5 0.1 0  0.6 0.1 0  0.7 0.1 0  0.8 0.1 0  0.9 0.1 0  1 0.1 0  0 0.2 0  0.1 0.2 0  0.2 0.2 0  0.3 0.2 0  0.4 0.2 0  0.5 0.2 0  0.6 0.2 0  0.7 0.2 0  0.8 0.2 0  0.9 0.2 0  1 0.2 0  0 0.3 0  0.1 0.3 0  0.2 0.3 0  0.3 0.3 0  0.4 0.3 0  0.5 0.3 0  0.6 0.3 0  0.7 0.3 0  0.8 0.3 0  0.9 0.3 0  1 0.3 0  0 0.4 0  0.1 0.4 0  0.2 0.4 0  0.3 0.4 0  0.4 0.4 0  0.5 0.4 0  0.6 0.4 0  0.7 0.4 0  0.8 0.4 0  0.9 0.4 0  1 0.4 0  0 0.5 0  0.1 0.5 0  0.2 0.5 0  0.3 0.5 0  0.4 0.5 0  0.5 0.5 0  0.6 0.5 0  0.7 0.5 0  0.8 0.5 0  0.9 0.5 0  1 0.5 0  0 0.6 0  0.1 0.6 0  0.2 0.6 0  0.3 0.6 0  0.4 0.6 0  0.5 0.6 0  0.6 0.6 0  0.7 0.6 0  0.8 0.6 0  0.9 0.6 0  1 0.6 0  0 0.7 0  0.1 0.7 0  0.2 0.7 0  0.3 0.7 0  0.4 0.7 0  0.5 0.7 0  0.6 0.7 0  0.7 0.7 0  0.8 0.7 0  0.9 0.7 0  1 0.7 0  0 0.8 0  0.1 0.8 0  0.2 0.8 0  0.3 0.8 0  0.4 0.8 0  0.5 0.8 0  0.6 0.8 0  0.7 0.8 0  0.8 0.8 0  0.9 0.8 0  1 0.8 0  0 0.9 0  0.1 0.9 0  0.2 0.9 0  0.3 0.9 0  0.4 0.9 0  0.5 0.9 0  0.6 0.9 0  0.7 0.9 0  0.8 0.9 0  0.9 0.9 0  1 0.9 0  0 1 0  0.1 1 0  0.2 1 0  0.3 1 0  0.4 1 0  0.5 1 0  0.6 1 0  0.7 1 0  0.8 1 0  0.9 1 0  1 1 0  </DataArray>
</Points>
<Cells>
<DataArray  type="UInt32"  Name="connectivity"  format="ascii">0 1 12  0 11 12  1 2 13  1 12 13  2 3 14  2 13 14  3 4 15  3 14 15  4 5 16  4 15 16  5 6 17  5 16 17  6 7 18  6 17 18  7 8 19  7 18 19  8 9 20  8 19 20  9 10 21  9 20 21  11 12 23  11 22 23  12 13 24  12 23 24  13 14 25  13 24 25  14 15 26  14 25 26  15 16 27  15 26 27  16 17 28  16 27 28  17 18 29  17 28 29  18 19 30  18 29 30  19 20 31  19 30 31  20 21 32  20 31 32  22 23 34  22 33 34  23 24 35  23 34 35  24 25 36  24 35 36  25 26 37  25 36 37  26 27 38  26 37 38  27 28 39  27 38 39  28 29 40  28 39 40  29 30 41  29 40 41  30 31 42  30 41 42  31 32 43  31 42 43  33 34 45  33 44 45  34 35 46  34 45 46  35 36 47  35 46 47  36 37 48  36 47 48  37 38 49  37 48 49  38 39 50  38 49 50  39 40 51  39 50 51  40 41 52  40 51 52  41 42 53  41 52 53  42 43 54  42 53 54  44 45 56  44 55 56  45 46 57  45 56 57  46 47 58  46 57 58  47 48 59  47 58 59  48 49 60  48 59 60  49 50 61  49 60 61  50 51 62  50 61 62  51 52 63  51 62 63  52 53 64  52 63 64  53 54 65  53 64 65  55 56 67  55 66 67  56 57 68  56 67 68  57 58 69  57 68 69  58 59 70  58 69 70  59 60 71  59 70 71  60 61 72  60 71 72  61 62 73  61 72 73  62 63 74  62 73 74  63 64 75  63 74 75  64 65 76  64 75 76  66 67 78  66 77 78  67 68 79  67 78 79  68 69 80  68 79 80  69 70 81  69 80 81  70 71 82  70 81 82  71 72 83  71 82 83  72 73 84  72 83 84  73 74 85  73 84 85  74 75 86  74 85 86  75 76 87  75 86 87  77 78 89  77 88 89  78 79 90  78 89 90  79 80 91  79 90 91  80 81 92  80 91 92  81 82 93  81 92 93  82 83 94  82 93 94  83 84 95  83 94 95  84 85 96  84 95 96  85 86 97  85 96 97  86 87 98  86 97 98  88 89 100  88 99 100  89 90 101  89 100 101  90 91 102  90 101 102  91 92 103  91 102 103  92 93 104  92 103 104  93 94 105  93 104 105  94 95 106  94 105 106  95 96 107  95 106 107  96 97 108  96 107 108  97 98 109  97 108 109  99 100 111  99 110 111  100 101 112  100 111 112  101 102 113  101 112 113  102 103 114  102 113 114  103 104 115  103 114 115  104 105 116  104 115 116  105 106 117  105 116 117  106 107 118  106 117 118  107 108 119  107 118 119  108 109 120  108 119 120  </DataArray>
<DataArray  type="UInt32"  Name="offsets"  format="ascii">3 6 9 12 15 18 21 24 27 30 33 36 39 42 45 48 51 54 57 60 63 66 69 72 75 78 81 84 87 90 93 96 99 102 105 108 111 114 117 120 123 126 129 132 135 138 141 144 147 150 153 156 159 162 165 168 171 174 177 180 183 186 189 192 195 198 201 204 207 210 213 216 219 222 225 228 231 234 237 240 243 246 249 252 255 258 261 264 267 270 273 276 279 282 285 288 291 294 297 300 303 306 309 312 315 318 321 324 327 330 333 336 339 342 345 348 351 354 357 360 363 366 369 372 375 378 381 384 387 390 393 396 399 402 405 408 411 414 417 420 423 426 429 432 435 438 441 444 447 450 453 456 459 462 465 468 471 474 477 480 483 486 489 492 495 498 501 504 507 510 513 516 519 522 525 528 531 534 537 540 543 546 549 552 555 558 561 564 567 570 573 576 579 582 585 588 591 594 597 600 </DataArray>
<DataArray  type="UInt8"  Name="types"  format="ascii">5 5 5 5 5 5 5 5 5 5 5 5 5 5 5 5 5 5 5 5 5 5 5 5 5 5 5 5 5 5 5 5 5 5 5 5 5 5 5 5 5 5 5 5 5 5 5 5 5 5 5 5 5 5 5 5 5 5 5 5 5 5 5 5 5 5 5 5 5 5 5 5 5 5 5 5 5 5 5 5 5 5 5 5 5 5 5 5 5 5 5 5 5 5 5 5 5 5 5 5 5 5 5 5 5 5 5 5 5 5 5 5 5 5 5 5 5 5 5 5 5 5 5 5 5 5 5 5 5 5 5 5 5 5 5 5 5 5 5 5 5 5 5 5 5 5 5 5 5 5 5 5 5 5 5 5 5 5 5 5 5 5 5 5 5 5 5 5 5 5 5 5 5 5 5 5 5 5 5 5 5 5 5 5 5 5 5 5 5 5 5 5 5 5 5 5 5 5 5 5 </DataArray>
</Cells>
<PointData  Vectors="f_22"> 
<DataArray  type="Float64"  Name="f_22"  NumberOfComponents="3" format="ascii">0.0000000000000000e+00 0.0000000000000000e+00 0.0000000000000000e+00  0.0000000000000000e+00 0.0000000000000000e+00 0.0000000000000000e+00  0.0000000000000000e+00 0.0000000000000000e+00 0.0000000000000000e+00  0.0000000000000000e+00 0.0000000000000000e+00 0.0000000000000000e+00  0.0000000000000000e+00 0.0000000000000000e+00 0.0000000000000000e+00  0.0000000000000000e+00 0.0000000000000000e+00 0.0000000000000000e+00  0.0000000000000000e+00 0.0000000000000000e+00 0.0000000000000000e+00  0.0000000000000000e+00 0.0000000000000000e+00 0.0000000000000000e+00  0.0000000000000000e+00 0.0000000000000000e+00 0.0000000000000000e+00  0.0000000000000000e+00 0.0000000000000000e+00 0.0000000000000000e+00  0.0000000000000000e+00 0.0000000000000000e+00 0.0000000000000000e+00  0.0000000000000000e+00 0.0000000000000000e+00 0.0000000000000000e+00  -1.1848990997642462e-02 1.0561589606150650e-02 0.0000000000000000e+00  -1.0726203352379067e-02 -2.4964112434443186e-03 0.0000000000000000e+00  9.2174176285966265e-03 -1.1654587241821723e-02 0.0000000000000000e+00  3.9456776604579497e-02 -1.5833807704189167e-02 0.0000000000000000e+00  7.4312765776518755e-02 -1.8081437020986284e-02 0.0000000000000000e+00  1.1255870672438634e-01 -2.0988309917375672e-02 0.0000000000000000e+00  1.5640371563036076e-01 -2.6324813721953434e-02 0.0000000000000000e+00  2.1035866681988988e-01 -3.4973236016967106e-02 0.0000000000000000e+00  2.7904004958616485e-01 -4.6966225089662077e-02 0.0000000000000000e+00  3.5169771377523540e-01 -5.9590929274670738e-02 0.0000000000000000e+00  0.0000000000000000e+00 0.0000000000000000e+00 0.0000000000000000e+00  -5.6537256646073336e-03 1.5249196918524595e-02 0.0000000000000000e+00  6.9718501601201211e-03 -2.0566868070486154e-02 0.0000000000000000e+00  4.0232616318815410e-02 -4.5761728224977802e-02 0.0000000000000000e+00  8.4477490426444216e-02 -5.7230512934504027e-02 0.0000000000000000e+00  1.3280851001383173e-01 -6.2546970447995717e-02 0.0000000000000000e+00  1.8270264994061694e-01 -6.8587649117555202e-02 0.0000000000000000e+00  2.3554960246700199e-01 -8.0642902591267135e-02 0.0000000000000000e+00  2.9591922046126068e-01 -1.0248244448658161e-01 0.0000000000000000e+00  3.7027518847033297e-01 -1.3312544362110015e-01 0.0000000000000000e+00  4.5016302453159446e-01 -1.6395880846939018e-01 0.0000000000000000e+00  0.0000000000000000e+00 0.0000000000000000e+00 0.0000000000000000e+00  -3.7819078168508918e-03 1.2276915617777972e-02 0.0000000000000000e+00  1.2326142554739726e-02 -4.8460800830910429e-02 0.0000000000000000e+00  4.8641144219139489e-02 -8.9572413563156733e-02 0.0000000000000000e+00  9.4794869169227830e-02 -1.0705206867483834e-01 0.0000000000000000e+00  1.4272713735282322e-01 -1.1284651601634864e-01 0.0000000000000000e+00  1.8823430587810025e-01 -1.1795634835282830e-01 0.0000000000000000e+00  2.3157725799960438e-01 -1.3145075568711242e-01 0.0000000000000000e+00  2.7826214765378504e-01 -1.5890952207100287e-01 0.0000000000000000e+00  3.3368680069404411e-01 -2.0329562091770967e-01 0.0000000000000000e+00  3.9751630670633453e-01 -2.6732142005116533e-01 0.0000000000000000e+00  0.0000000000000000e+00 0.0000000000000000e+00 0.0000000000000000e+00  -2.7029471852973576e-03 9.2955944134622843e-03 0.0000000000000000e+00  1.4903911344122764e-02 -7.4571980845726540e-02 0.0000000000000000e+00  5.2272663948041288e-02 -1.2991284670414660e-01 0.0000000000000000e+00  9.8808975126274956e-02 -1.5212956560136917e-01 0.0000000000000000e+00  1.4413427394626674e-01 -1.5512178552168612e-01 0.0000000000000000e+00  1.7996171819941009e-01 -1.5339202419815204e-01 0.0000000000000000e+00  2.0499980161534734e-01 -1.6308763129599221e-01 0.0000000000000000e+00  2.2381953441268232e-01 -1.9758052889355657e-01 0.0000000000000000e+00  2.4446250240574935e-01 -2.6722664030450721e-01 0.0000000000000000e+00  2.5104678757639526e-01 -3.1609648585165723e-01 0.0000000000000000e+00  0.0000000000000000e+00 0.0000000000000000e+00 0.0000000000000000e+00  -1.3812214758771051e-03 1.5905973494195489e-03 0.0000000000000000e+00  1.7022856874079305e-02 -1.0860992954747636e-01 0.0000000000000000e+00  5.5404773738185503e-02 -1.8044844346101871e-01 0.0000000000000000e+00  1.0292272291278157e-01 -2.0596397320448157e-01 0.0000000000000000e+00  1.4362841314785582e-01 -1.9723942580241799e-01 0.0000000000000000e+00  1.6253299416019540e-01 -1.7479847079867009e-01 0.0000000000000000e+00  1.5831555933391556e-01 -1.6863582445770120e-01 0.0000000000000000e+00  1.4126224591283432e-01 -1.9732013799547399e-01 0.0000000000000000e+00  1.0804571147865991e-01 -2.4088488389780807e-01 0.0000000000000000e+00  0.0000000000000000e+00 0.0000000000000000e+00 0.0000000000000000e+00  0.0000000000000000e+00 0.0000000000000000e+00 0.0000000000000000e+00  -8.8676797117533048e-05 -3.2973487590596271e-03 0.0000000000000000e+00  1.9201570591451854e-02 -1.3185698738054408e-01 0.0000000000000000e+00  5.7036712111994903e-02 -2.1571873386785115e-01 0.0000000000000000e+00  1.0149208610646165e-01 -2.4224707612333846e-01 0.0000000000000000e+00  1.2940965353595010e-01 -2.1238680546256716e-01 0.0000000000000000e+00  1.1970606239844346e-01 -1.5704962435175568e-01 0.0000000000000000e+00  7.5212428284897895e-02 -1.3466255772078564e-01 0.0000000000000000e+00  4.2494788859829040e-02 -1.6217900190707316e-01 0.0000000000000000e+00  -8.2109338368754906e-02 -1.5610458841535024e-01 0.0000000000000000e+00  0.0000000000000000e+00 0.0000000000000000e+00 0.0000000000000000e+00  0.0000000000000000e+00 0.0000000000000000e+00 0.0000000000000000e+00  1.9366498967244221e-03 -1.4116541967987544e-02 0.0000000000000000e+00  1.9016444385722198e-02 -1.6768867080360078e-01 0.0000000000000000e+00  5.1977150000762196e-02 -2.7187360052957504e-01 0.0000000000000000e+00  8.8153948567926382e-02 -2.9567219422278890e-01 0.0000000000000000e+00  9.3037617397502326e-02 -2.1727408875900647e-01 0.0000000000000000e+00  4.7275931853569826e-02 -1.1063639146386357e-01 0.0000000000000000e+00  -4.1950318407061912e-02 -7.6429498676256286e-02 0.0000000000000000e+00  -6.2901363076480393e-02 -9.8216454682495874e-02 0.0000000000000000e+00  -3.3129754572237524e-01 -4.2682038608365273e-02 0.0000000000000000e+00  0.0000000000000000e+00 0.0000000000000000e+00 0.0000000000000000e+00  0.0000000000000000e+00 0.0000000000000000e+00 0.0000000000000000e+00  2.8558897998348255e-03 -2.1149102038291231e-02 0.0000000000000000e+00  1.8070539129506763e-02 -1.8356744208019199e-01 0.0000000000000000e+00  4.2643892818052524e-02 -2.8994677863236284e-01 0.0000000000000000e+00  6.0789468945817382e-02 -2.9300025626315290e-01 0.0000000000000000e+00  3.7087330602102092e-02 -1.5311214285578367e-01 0.0000000000000000e+00  -3.5333719053998104e-02 -1.8882095399530622e-02 0.0000000000000000e+00  -1.6154773232080363e-01 1.3827954774387512e-02 0.0000000000000000e+00  -1.6874543861191652e-01 1.4915022490606689e-02 0.0000000000000000e+00  -6.0237855909839044e-01 6.2594071883896929e-02 0.0000000000000000e+00  0.0000000000000000e+00 0.0000000000000000e+00 0.0000000000000000e+00  0.0000000000000000e+00 0.0000000000000000e+00 0.0000000000000000e+00  5.3854441206171123e-03 -3.3383113442836301e-02 0.0000000000000000e+00  1.7962314209606239e-02 -2.0587774223590585e-01 0.0000000000000000e+00  2.9470467668377111e-02 -3.2143100996951030e-01 0.0000000000000000e+00  3.2822870507544392e-02 -3.1539367803463914e-01 0.0000000000000000e+00  -3.3557897600295632e-03 -1.1421148316443044e-01 0.0000000000000000e+00  -7.8894037352787591e-02 5.6182769114808871e-02 0.0000000000000000e+00  -1.8519408274656524e-01 1.4748338693916321e-01 0.0000000000000000e+00  -2.2442597724852373e-01 2.1105406602508872e-01 0.0000000000000000e+00  -8.0268357949325930e-01 1.3045279524945377e-01 0.0000000000000000e+00  0.0000000000000000e+00 0.0000000000000000e+00 0.0000000000000000e+00  0.0000000000000000e+00 0.0000000000000000e+00 0.0000000000000000e+00  7.2898440906148890e-03 -4.5455112951143489e-02 0.0000000000000000e+00  1.7755962125402053e-02 -2.1165617009273985e-01 0.0000000000000000e+00  2.5074913219466897e-02 -3.2081774588255807e-01 0.0000000000000000e+00  2.4294201482578749e-02 -2.9382698650021727e-01 0.0000000000000000e+00  0.0000000000000000e+00 0.0000000000000000e+00 0.0000000000000000e+00  0.0000000000000000e+00 0.0000000000000000e+00 0.0000000000000000e+00  0.0000000000000000e+00 0.0000000000000000e+00 0.0000000000000000e+00  0.0000000000000000e+00 0.0000000000000000e+00 0.0000000000000000e+00  0.0000000000000000e+00 0.0000000000000000e+00 0.0000000000000000e+00  0.0000000000000000e+00 0.0000000000000000e+00 0.0000000000000000e+00  </DataArray> 
</PointData> 
</Piece>
</UnstructuredGrid>
</VTKFile>