<?xml version="1.0"?>
<VTKFile type="UnstructuredGrid"  version="0.1"  >
<UnstructuredGrid>
<Piece  NumberOfPoints="121" NumberOfCells="200">
<Points>
<DataArray  type="Float64"  NumberOfComponents="3"  format="ascii">0 0 0  0.1 0 0  0.2 0 0  0.3 0 0  0.4 0 0  0.5 0 0  0.6 0 0  0.7 0 0  0.8 0 0  0.9 0 0  1 0 0  0 0.1 0  0.1 0.1 0  0.2 0.1 0  0.3 0.1 0  0.4 0.1 0  0.5 0.1 0  0.6 0.1 0  0.7 0.1 0  0.8 0.1 0  0.9 0.1 0  1 0.1 0  0 0.2 0  0.1 0.2 0  0.2 0.2 0  0.3 0.2 0  0.4 0.2 0  0.5 0.2 0  0.6 0.2 0  0.7 0.2 0  0.8 0.2 0  0.9 0.2 0  1 0.2 0  0 0.3 0  0.1 0.3 0  0.2 0.3 0  0.3 0.3 0  0.4 0.3 0  0.5 0.3 0  0.6 0.3 0  0.7 0.3 0  0.8 0.3 0  0.9 0.3 0  1 0.3 0  0 0.4 0  0.1 0.4 0  0.2 0.4 0  0.3 0.4 0  0.4 0.4 0  0.5 0.4 0  0.6 0.4 0  0.7 0.4 0  0.8 0.4 0  0.9 0.4 0  1 0.4 0  0 0.5 0  0.1 0.5 0  0.2 0.5 0  0.3 0.5 0  0.4 0.5 0  0.5 0.5 0  0.6 0.5 0  0.7 0.5 0  0.8 0.5 0  0.9 0.5 0  1 0.5 0  0 0.6 0  0.1 0.6 0  0.2 0.6 0  0.3 0.6 0  0.4 0.6 0  0.5 0.6 0  0.6 0.6 0  0.7 0.6 0  0.8 0.6 0  0.9 0.6 0  1 0.6 0  0 0.7 0  0.1 0.7 0  0.2 0.7 0  0.3 0.7 0  0.4 0.7 0  0.5 0.7 0  0.6 0.7 0  0.7 0.7 0  0.8 0.7 0  0.9 0.7 0  1 0.7 0  0 0.8 0  0.1 0.8 0  0.2 0.8 0  0.3 0.8 0  0.4 0.8 0  0.5 0.8 0  0.6 0.8 0  0.7 0.8 0  0.8 0.8 0  0.9 0.8 0  1 0.8 0  0 0.9 0  0.1 0.9 0  0.2 0.9 0  0.3 0.9 0  0.4 0.9 0  0.5 0.9 0  0.6 0.9 0  0.7 0.9 0  0.8 0.9 0  0.9 0.9 0  1 0.9 0  0 1 0  0.1 1 0  0.2 1 0  0.3 1 0  0.4 1 0  0.5 1 0  0.6 1 0  0.7 1 0  0.8 1 0  0.9 1 0  1 1 0  </DataArray>
</Points>
<Cells>
<DataArray  type="UInt32"  Name="connectivity"  format="ascii">0 1 12  0 11 12  1 2 13  1 12 13  2 3 14  2 13 14  3 4 15  3 14 15  4 5 16  4 15 16  5 6 17  5 16 17  6 7 18  6 17 18  7 8 19  7 18 19  8 9 20  8 19 20  9 10 21  9 20 21  11 12 23  11 22 23  12 13 24  12 23 24  13 14 25  13 24 25  14 15 26  14 25 26  15 16 27  15 26 27  16 17 28  16 27 28  17 18 29  17 28 29  18 19 30  18 29 30  19 20 31  19 30 31  20 21 32  20 31 32  22 23 34  22 33 34  23 24 35  23 34 35  24 25 36  24 35 36  25 26 37  25 36 37  26 27 38  26 37 38  27 28 39  27 38 39  28 29 40  28 39 40  29 30 41  29 40 41  30 31 42  30 41 42  31 32 43  31 42 43  33 34 45  33 44 45  34 35 46  34 45 46  35 36 47  35 46 47  36 37 48  36 47 48  37 38 49  37 48 49  38 39 50  38 49 50  39 40 51  39 50 51  40 41 52  40 51 52  41 42 53  41 52 53  42 43 54  42 53 54  44 45 56  44 55 56  45 46 57  45 56 57  46 47 58  46 57 58  47 48 59  47 58 59  48 49 60  48 59 60  49 50 61  49 60 61  50 51 62  50 61 62  51 52 63  51 62 63  52 53 64  52 63 64  53 54 65  53 64 65  55 56 67  55 66 67  56 57 68  56 67 68  57 58 69  57 68 69  58 59 70  58 69 70  59 60 71  59 70 71  60 61 72  60 71 72  61 62 73  61 72 73  62 63 74  62 73 74  63 64 75  63 74 75  64 65 76  64 75 76  66 67 78  66 77 78  67 68 79  67 78 79  68 69 80  68 79 80  69 70 81  69 80 81  70 71 82  70 81 82  71 72 83  71 82 83  72 73 84  72 83 84  73 74 85  73 84 85  74 75 86  74 85 86  75 76 87  75 86 87  77 78 89  77 88 89  78 79 90  78 89 90  79 80 91  79 90 91  80 81 92  80 91 92  81 82 93  81 92 93  82 83 94  82 93 94  83 84 95  83 94 95  84 85 96  84 95 96  85 86 97  85 96 97  86 87 98  86 97 98  88 89 100  88 99 100  89 90 101  89 100 101  90 91 102  90 101 102  91 92 103  91 102 103  92 93 104  92 103 104  93 94 105  93 104 105  94 95 106  94 105 106  95 96 107  95 106 107  96 97 108  96 107 108  97 98 109  97 108 109  99 100 111  99 110 111  100 101 112  100 111 112  101 102 113  101 112 113  102 103 114  102 113 114  103 104 115  103 114 115  104 105 116  104 115 116  105 106 117  105 116 117  106 107 118  106 117 118  107 108 119  107 118 119  108 109 120  108 119 120  </DataArray>
<DataArray  type="UInt32"  Name="offsets"  format="ascii">3 6 9 12 15 18 21 24 27 30 33 36 39 42 45 48 51 54 57 60 63 66 69 72 75 78 81 84 87 90 93 96 99 102 105 108 111 114 117 120 123 126 129 132 135 138 141 144 147 150 153 156 159 162 165 168 171 174 177 180 183 186 189 192 195 198 201 204 207 210 213 216 219 222 225 228 231 234 237 240 243 246 249 252 255 258 261 264 267 270 273 276 279 282 285 288 291 294 297 300 303 306 309 312 315 318 321 324 327 330 333 336 339 342 345 348 351 354 357 360 363 366 369 372 375 378 381 384 387 390 393 396 399 402 405 408 411 414 417 420 423 426 429 432 435 438 441 444 447 450 453 456 459 462 465 468 471 474 477 480 483 486 489 492 495 498 501 504 507 510 513 516 519 522 525 528 531 534 537 540 543 546 549 552 555 558 561 564 567 570 573 576 579 582 585 588 591 594 597 600 </DataArray>
<DataArray  type="UInt8"  Name="types"  format="ascii">5 5 5 5 5 5 5 5 5 5 5 5 5 5 5 5 5 5 5 5 5 5 5 5 5 5 5 5 5 5 5 5 5 5 5 5 5 5 5 5 5 5 5 5 5 5 5 5 5 5 5 5 5 5 5 5 5 5 5 5 5 5 5 5 5 5 5 5 5 5 5 5 5 5 5 5 5 5 5 5 5 5 5 5 5 5 5 5 5 5 5 5 5 5 5 5 5 5 5 5 5 5 5 5 5 5 5 5 5 5 5 5 5 5 5 5 5 5 5 5 5 5 5 5 5 5 5 5 5 5 5 5 5 5 5 5 5 5 5 5 5 5 5 5 5 5 5 5 5 5 5 5 5 5 5 5 5 5 5 5 5 5 5 5 5 5 5 5 5 5 5 5 5 5 5 5 5 5 5 5 5 5 5 5 5 5 5 5 5 5 5 5 5 5 5 5 5 5 5 5 </DataArray>
</Cells>
<PointData  Vectors="f_22"> 
<DataArray  type="Float64"  Name="f_22"  NumberOfComponents="3" format="ascii">0.0000000000000000e+00 0.0000000000000000e+00 0.0000000000000000e+00  0.0000000000000000e+00 0.0000000000000000e+00 0.0000000000000000e+00  0.0000000000000000e+00 0.0000000000000000e+00 0.0000000000000000e+00  0.0000000000000000e+00 0.0000000000000000e+00 0.0000000000000000e+00  0.0000000000000000e+00 0.0000000000000000e+00 0.0000000000000000e+00  0.0000000000000000e+00 0.0000000000000000e+00 0.0000000000000000e+00  0.0000000000000000e+00 0.0000000000000000e+00 0.0000000000000000e+00  0.0000000000000000e+00 0.0000000000000000e+00 0.0000000000000000e+00  0.0000000000000000e+00 0.0000000000000000e+00 0.0000000000000000e+00  0.0000000000000000e+00 0.0000000000000000e+00 0.0000000000000000e+00  0.0000000000000000e+00 0.0000000000000000e+00 0.0000000000000000e+00  0.0000000000000000e+00 0.0000000000000000e+00 0.0000000000000000e+00  2.4919152732460741e-02 -2.5372222197066020e-02 0.0000000000000000e+00  6.8751162730781037e-02 -3.1222894952405746e-02 0.0000000000000000e+00  1.1677549234293251e-01 -3.1914362983891761e-02 0.0000000000000000e+00  1.6529847747560206e-01 -3.2023038909370319e-02 0.0000000000000000e+00  2.1384222386834031e-01 -3.1855345319270777e-02 0.0000000000000000e+00  2.6180489806159130e-01 -3.1071485624758814e-02 0.0000000000000000e+00  3.0801890490188244e-01 -2.9029793977537424e-02 0.0000000000000000e+00  3.5005359788789053e-01 -2.4907550491176010e-02 0.0000000000000000e+00  3.8377771296607338e-01 -1.8516118010729748e-02 0.0000000000000000e+00  3.9867737336167497e-01 -1.0766706925625797e-02 0.0000000000000000e+00  0.0000000000000000e+00 0.0000000000000000e+00 0.0000000000000000e+00  2.8556200060737731e-02 -6.8100912865749416e-02 0.0000000000000000e+00  7.8207344417241781e-02 -8.2664618403691867e-02 0.0000000000000000e+00  1.3247234362775254e-01 -8.4851271481905480e-02 0.0000000000000000e+00  1.8758030840331977e-01 -8.5308552811853872e-02 0.0000000000000000e+00  2.4314412739241451e-01 -8.5097537145790422e-02 0.0000000000000000e+00  2.9880328986066068e-01 -8.3637878349556910e-02 0.0000000000000000e+00  3.5383360794338081e-01 -7.9734450852669878e-02 0.0000000000000000e+00  4.0673095440448093e-01 -7.1030872627370303e-02 0.0000000000000000e+00  4.5190673561703137e-01 -5.3752501844348967e-02 0.0000000000000000e+00  4.7965988822141448e-01 -3.2321886339449470e-02 0.0000000000000000e+00  0.0000000000000000e+00 0.0000000000000000e+00 0.0000000000000000e+00  2.8371523075270053e-02 -1.1301389855313926e-01 0.0000000000000000e+00  7.8267322277211240e-02 -1.3643997591416704e-01 0.0000000000000000e+00  1.3296071366126369e-01 -1.4033792048122856e-01 0.0000000000000000e+00  1.8888259521616843e-01 -1.4168748098775796e-01 0.0000000000000000e+00  2.4591447032008673e-01 -1.4225186422271377e-01 0.0000000000000000e+00  3.0413228387970537e-01 -1.4126178813190760e-01 0.0000000000000000e+00  3.6370869246317589e-01 -1.3695355744435386e-01 0.0000000000000000e+00  4.2371013708791344e-01 -1.2533046917916413e-01 0.0000000000000000e+00  4.8620175260667037e-01 -1.0028818240594037e-01 0.0000000000000000e+00  5.2605460658754755e-01 -6.6195272142422476e-02 0.0000000000000000e+00  0.0000000000000000e+00 0.0000000000000000e+00 0.0000000000000000e+00  2.7967134820105703e-02 -1.5716397309120850e-01 0.0000000000000000e+00  7.7183819943066695e-02 -1.8929809903236591e-01 0.0000000000000000e+00  1.3151063634522711e-01 -1.9483132671187969e-01 0.0000000000000000e+00  1.8765243398130776e-01 -1.9704419852917260e-01 0.0000000000000000e+00  2.4559677685811182e-01 -1.9837972869661694e-01 0.0000000000000000e+00  3.0556238119161672e-01 -1.9850446791032209e-01 0.0000000000000000e+00  3.6795480956117738e-01 -1.9684443403171251e-01 0.0000000000000000e+00  4.3151672104211258e-01 -1.9219248368459366e-01 0.0000000000000000e+00  4.7846213124268816e-01 -1.7862970305253217e-01 0.0000000000000000e+00  6.1355836980531142e-01 -1.3648801143438499e-01 0.0000000000000000e+00  0.0000000000000000e+00 0.0000000000000000e+00 0.0000000000000000e+00  2.7032738273545919e-02 -2.0101051601466435e-01 0.0000000000000000e+00  7.4657761994227481e-02 -2.4319389151248139e-01 0.0000000000000000e+00  1.2804508048325977e-01 -2.5302108307057580e-01 0.0000000000000000e+00  1.8404157139671509e-01 -2.5925075395518687e-01 0.0000000000000000e+00  2.4225299775559220e-01 -2.6543751351601569e-01 0.0000000000000000e+00  3.0364839888720668e-01 -2.7203434217889066e-01 0.0000000000000000e+00  3.6989626496980815e-01 -2.7562636503566879e-01 0.0000000000000000e+00  4.3568368447399985e-01 -2.6689875808290664e-01 0.0000000000000000e+00  4.5598962695890605e-01 -2.2332206396089235e-01 0.0000000000000000e+00  0.0000000000000000e+00 0.0000000000000000e+00 0.0000000000000000e+00  0.0000000000000000e+00 0.0000000000000000e+00 0.0000000000000000e+00  2.5662447561655220e-02 -2.4145820045161306e-01 0.0000000000000000e+00  7.1255460009060217e-02 -2.9037676043875604e-01 0.0000000000000000e+00  1.2381906946663079e-01 -2.9899045766923549e-01 0.0000000000000000e+00  1.7993991687959249e-01 -3.0117128392913695e-01 0.0000000000000000e+00  2.3875908844752283e-01 -3.0157970762227748e-01 0.0000000000000000e+00  3.0065538311308504e-01 -2.9994366346421580e-01 0.0000000000000000e+00  3.6770922447388260e-01 -2.9707356052096096e-01 0.0000000000000000e+00  4.3755751514881441e-01 -2.9375133987735280e-01 0.0000000000000000e+00  4.5133818454477664e-01 -2.5133913913836331e-01 0.0000000000000000e+00  0.0000000000000000e+00 0.0000000000000000e+00 0.0000000000000000e+00  0.0000000000000000e+00 0.0000000000000000e+00 0.0000000000000000e+00  2.2345435187808335e-02 -2.8092770142960621e-01 0.0000000000000000e+00  6.1803966511932193e-02 -3.4361411521369689e-01 0.0000000000000000e+00  1.0960162372870416e-01 -3.7137580511049206e-01 0.0000000000000000e+00  1.6755245631491272e-01 -3.9856547647614654e-01 0.0000000000000000e+00  2.2653584514346067e-01 -4.1968607417815956e-01 0.0000000000000000e+00  2.7906637171385945e-01 -4.4851252477623793e-01 0.0000000000000000e+00  3.4546366398545014e-01 -5.0183978058522283e-01 0.0000000000000000e+00  4.4211209413203323e-01 -5.3478269685265767e-01 0.0000000000000000e+00  4.6569567301505732e-01 -4.2347963891274704e-01 0.0000000000000000e+00  0.0000000000000000e+00 0.0000000000000000e+00 0.0000000000000000e+00  0.0000000000000000e+00 0.0000000000000000e+00 0.0000000000000000e+00  1.7357687433867022e-02 -3.0908787212754102e-01 0.0000000000000000e+00  4.8317539072206511e-02 -3.7572219227116749e-01 0.0000000000000000e+00  9.6696162720564902e-02 -3.9693950477003387e-01 0.0000000000000000e+00  1.6803513225991223e-01 -3.8893360208401784e-01 0.0000000000000000e+00  2.2294739273268777e-01 -3.3487275635047026e-01 0.0000000000000000e+00  2.6070729662889780e-01 -3.0207593033016594e-01 0.0000000000000000e+00  3.1442864111620467e-01 -2.8731196971851247e-01 0.0000000000000000e+00  3.9430644742421833e-01 -2.8037721738817800e-01 0.0000000000000000e+00  4.3469681615375733e-01 -3.5754298512726512e-01 0.0000000000000000e+00  0.0000000000000000e+00 0.0000000000000000e+00 0.0000000000000000e+00  0.0000000000000000e+00 0.0000000000000000e+00 0.0000000000000000e+00  9.6511922699162762e-03 -3.3343881027239980e-01 0.0000000000000000e+00  2.5800994130214309e-02 -4.1569289572687501e-01 0.0000000000000000e+00  5.4495847305921379e-02 -4.8228270357882352e-01 0.0000000000000000e+00  1.0029243864670812e-01 -5.8092288797971348e-01 0.0000000000000000e+00  1.4107243833287614e-01 -6.1248998353274764e-01 0.0000000000000000e+00  1.2023555890601709e-01 -6.7953243916229900e-01 0.0000000000000000e+00  1.2825569834734152e-01 -8.5521075546961556e-01 0.0000000000000000e+00  1.6285480545303019e-01 -1.0849853665531477e+00 0.0000000000000000e+00  4.2337912577138714e-01 -1.2447804469941728e+00 0.0000000000000000e+00  0.0000000000000000e+00 0.0000000000000000e+00 0.0000000000000000e+00  0.0000000000000000e+00 0.0000000000000000e+00 0.0000000000000000e+00  4.8484573240411338e-03 -3.3313057496243925e-01 0.0000000000000000e+00  1.3135076502521005e-02 -4.1389999808718464e-01 0.0000000000000000e+00  2.7788147185680484e-02 -4.7693847992973937e-01 0.0000000000000000e+00  4.7968682825606637e-02 -5.4110947355989825e-01 0.0000000000000000e+00  0.0000000000000000e+00 0.0000000000000000e+00 0.0000000000000000e+00  0.0000000000000000e+00 0.0000000000000000e+00 0.0000000000000000e+00  0.0000000000000000e+00 0.0000000000000000e+00 0.0000000000000000e+00  0.0000000000000000e+00 0.0000000000000000e+00 0.0000000000000000e+00  0.0000000000000000e+00 0.0000000000000000e+00 0.0000000000000000e+00  0.0000000000000000e+00 0.0000000000000000e+00 0.0000000000000000e+00  </DataArray> 
</PointData> 
</Piece>
</UnstructuredGrid>
</VTKFile>