<?xml version="1.0"?>
<VTKFile type="UnstructuredGrid"  version="0.1"  >
<UnstructuredGrid>
<Piece  NumberOfPoints="121" NumberOfCells="200">
<Points>
<DataArray  type="Float64"  NumberOfComponents="3"  format="ascii">0 0 0  0.1 0 0  0.2 0 0  0.3 0 0  0.4 0 0  0.5 0 0  0.6 0 0  0.7 0 0  0.8 0 0  0.9 0 0  1 0 0  0 0.1 0  0.1 0.1 0  0.2 0.1 0  0.3 0.1 0  0.4 0.1 0  0.5 0.1 0  0.6 0.1 0  0.7 0.1 0  0.8 0.1 0  0.9 0.1 0  1 0.1 0  0 0.2 0  0.1 0.2 0  0.2 0.2 0  0.3 0.2 0  0.4 0.2 0  0.5 0.2 0  0.6 0.2 0  0.7 0.2 0  0.8 0.2 0  0.9 0.2 0  1 0.2 0  0 0.3 0  0.1 0.3 0  0.2 0.3 0  0.3 0.3 0  0.4 0.3 0  0.5 0.3 0  0.6 0.3 0  0.7 0.3 0  0.8 0.3 0  0.9 0.3 0  1 0.3 0  0 0.4 0  0.1 0.4 0  0.2 0.4 0  0.3 0.4 0  0.4 0.4 0  0.5 0.4 0  0.6 0.4 0  0.7 0.4 0  0.8 0.4 0  0.9 0.4 0  1 0.4 0  0 0.5 0  0.1 0.5 0  0.2 0.5 0  0.3 0.5 0  0.4 0.5 0  0.5 0.5 0  0.6 0.5 0  0.7 0.5 0  0.8 0.5 0  0.9 0.5 0  1 0.5 0  0 0.6 0  0.1 0.6 0  0.2 0.6 0  0.3 0.6 0  0.4 0.6 0  0.5 0.6 0  0.6 0.6 0  0.7 0.6 0  0.8 0.6 0  0.9 0.6 0  1 0.6 0  0 0.7 0  0.1 0.7 0  0.2 0.7 0  0.3 0.7 0  0.4 0.7 0  0.5 0.7 0  0.6 0.7 0  0.7 0.7 0  0.8 0.7 0  0.9 0.7 0  1 0.7 0  0 0.8 0  0.1 0.8 0  0.2 0.8 0  0.3 0.8 0  0.4 0.8 0  0.5 0.8 0  0.6 0.8 0  0.7 0.8 0  0.8 0.8 0  0.9 0.8 0  1 0.8 0  0 0.9 0  0.1 0.9 0  0.2 0.9 0  0.3 0.9 0  0.4 0.9 0  0.5 0.9 0  0.6 0.9 0  0.7 0.9 0  0.8 0.9 0  0.9 0.9 0  1 0.9 0  0 1 0  0.1 1 0  0.2 1 0  0.3 1 0  0.4 1 0  0.5 1 0  0.6 1 0  0.7 1 0  0.8 1 0  0.9 1 0  1 1 0  </DataArray>
</Points>
<Cells>
<DataArray  type="UInt32"  Name="connectivity"  format="ascii">0 1 12  0 11 12  1 2 13  1 12 13  2 3 14  2 13 14  3 4 15  3 14 15  4 5 16  4 15 16  5 6 17  5 16 17  6 7 18  6 17 18  7 8 19  7 18 19  8 9 20  8 19 20  9 10 21  9 20 21  11 12 23  11 22 23  12 13 24  12 23 24  13 14 25  13 24 25  14 15 26  14 25 26  15 16 27  15 26 27  16 17 28  16 27 28  17 18 29  17 28 29  18 19 30  18 29 30  19 20 31  19 30 31  20 21 32  20 31 32  22 23 34  22 33 34  23 24 35  23 34 35  24 25 36  24 35 36  25 26 37  25 36 37  26 27 38  26 37 38  27 28 39  27 38 39  28 29 40  28 39 40  29 30 41  29 40 41  30 31 42  30 41 42  31 32 43  31 42 43  33 34 45  33 44 45  34 35 46  34 45 46  35 36 47  35 46 47  36 37 48  36 47 48  37 38 49  37 48 49  38 39 50  38 49 50  39 40 51  39 50 51  40 41 52  40 51 52  41 42 53  41 52 53  42 43 54  42 53 54  44 45 56  44 55 56  45 46 57  45 56 57  46 47 58  46 57 58  47 48 59  47 58 59  48 49 60  48 59 60  49 50 61  49 60 61  50 51 62  50 61 62  51 52 63  51 62 63  52 53 64  52 63 64  53 54 65  53 64 65  55 56 67  55 66 67  56 57 68  56 67 68  57 58 69  57 68 69  58 59 70  58 69 70  59 60 71  59 70 71  60 61 72  60 71 72  61 62 73  61 72 73  62 63 74  62 73 74  63 64 75  63 74 75  64 65 76  64 75 76  66 67 78  66 77 78  67 68 79  67 78 79  68 69 80  68 79 80  69 70 81  69 80 81  70 71 82  70 81 82  71 72 83  71 82 83  72 73 84  72 83 84  73 74 85  73 84 85  74 75 86  74 85 86  75 76 87  75 86 87  77 78 89  77 88 89  78 79 90  78 89 90  79 80 91  79 90 91  80 81 92  80 91 92  81 82 93  81 92 93  82 83 94  82 93 94  83 84 95  83 94 95  84 85 96  84 95 96  85 86 97  85 96 97  86 87 98  86 97 98  88 89 100  88 99 100  89 90 101  89 100 101  90 91 102  90 101 102  91 92 103  91 102 103  92 93 104  92 103 104  93 94 105  93 104 105  94 95 106  94 105 106  95 96 107  95 106 107  96 97 108  96 107 108  97 98 109  97 108 109  99 100 111  99 110 111  100 101 112  100 111 112  101 102 113  101 112 113  102 103 114  102 113 114  103 104 115  103 114 115  104 105 116  104 115 116  105 106 117  105 116 117  106 107 118  106 117 118  107 108 119  107 118 119  108 109 120  108 119 120  </DataArray>
<DataArray  type="UInt32"  Name="offsets"  format="ascii">3 6 9 12 15 18 21 24 27 30 33 36 39 42 45 48 51 54 57 60 63 66 69 72 75 78 81 84 87 90 93 96 99 102 105 108 111 114 117 120 123 126 129 132 135 138 141 144 147 150 153 156 159 162 165 168 171 174 177 180 183 186 189 192 195 198 201 204 207 210 213 216 219 222 225 228 231 234 237 240 243 246 249 252 255 258 261 264 267 270 273 276 279 282 285 288 291 294 297 300 303 306 309 312 315 318 321 324 327 330 333 336 339 342 345 348 351 354 357 360 363 366 369 372 375 378 381 384 387 390 393 396 399 402 405 408 411 414 417 420 423 426 429 432 435 438 441 444 447 450 453 456 459 462 465 468 471 474 477 480 483 486 489 492 495 498 501 504 507 510 513 516 519 522 525 528 531 534 537 540 543 546 549 552 555 558 561 564 567 570 573 576 579 582 585 588 591 594 597 600 </DataArray>
<DataArray  type="UInt8"  Name="types"  format="ascii">5 5 5 5 5 5 5 5 5 5 5 5 5 5 5 5 5 5 5 5 5 5 5 5 5 5 5 5 5 5 5 5 5 5 5 5 5 5 5 5 5 5 5 5 5 5 5 5 5 5 5 5 5 5 5 5 5 5 5 5 5 5 5 5 5 5 5 5 5 5 5 5 5 5 5 5 5 5 5 5 5 5 5 5 5 5 5 5 5 5 5 5 5 5 5 5 5 5 5 5 5 5 5 5 5 5 5 5 5 5 5 5 5 5 5 5 5 5 5 5 5 5 5 5 5 5 5 5 5 5 5 5 5 5 5 5 5 5 5 5 5 5 5 5 5 5 5 5 5 5 5 5 5 5 5 5 5 5 5 5 5 5 5 5 5 5 5 5 5 5 5 5 5 5 5 5 5 5 5 5 5 5 5 5 5 5 5 5 5 5 5 5 5 5 5 5 5 5 5 5 </DataArray>
</Cells>
<PointData  Vectors="f_22"> 
<DataArray  type="Float64"  Name="f_22"  NumberOfComponents="3" format="ascii">0.0000000000000000e+00 0.0000000000000000e+00 0.0000000000000000e+00  0.0000000000000000e+00 0.0000000000000000e+00 0.0000000000000000e+00  0.0000000000000000e+00 0.0000000000000000e+00 0.0000000000000000e+00  0.0000000000000000e+00 0.0000000000000000e+00 0.0000000000000000e+00  0.0000000000000000e+00 0.0000000000000000e+00 0.0000000000000000e+00  0.0000000000000000e+00 0.0000000000000000e+00 0.0000000000000000e+00  0.0000000000000000e+00 0.0000000000000000e+00 0.0000000000000000e+00  0.0000000000000000e+00 0.0000000000000000e+00 0.0000000000000000e+00  0.0000000000000000e+00 0.0000000000000000e+00 0.0000000000000000e+00  0.0000000000000000e+00 0.0000000000000000e+00 0.0000000000000000e+00  0.0000000000000000e+00 0.0000000000000000e+00 0.0000000000000000e+00  0.0000000000000000e+00 0.0000000000000000e+00 0.0000000000000000e+00  2.0846927902272470e-02 -2.1981453788797428e-02 0.0000000000000000e+00  7.0167983351360277e-02 -3.5304069547604441e-02 0.0000000000000000e+00  1.3144809227364385e-01 -3.9101480281229013e-02 0.0000000000000000e+00  1.9599709046179919e-01 -4.0287786269235008e-02 0.0000000000000000e+00  2.6195009641560890e-01 -4.1198542612270142e-02 0.0000000000000000e+00  3.2918789507723772e-01 -4.2185040075038885e-02 0.0000000000000000e+00  3.9771668990326547e-01 -4.2791797625661619e-02 0.0000000000000000e+00  4.6622317526910434e-01 -4.1871264337285996e-02 0.0000000000000000e+00  5.3080105057208726e-01 -3.8932534784470903e-02 0.0000000000000000e+00  5.7984346321245661e-01 -3.2364408490904217e-02 0.0000000000000000e+00  0.0000000000000000e+00 0.0000000000000000e+00 0.0000000000000000e+00  2.7381157822554784e-02 -6.6248930717633242e-02 0.0000000000000000e+00  8.6936274198915919e-02 -9.9981406065063477e-02 0.0000000000000000e+00  1.5936907927031843e-01 -1.1004553008864801e-01 0.0000000000000000e+00  2.3535060582160769e-01 -1.1291272815840671e-01 0.0000000000000000e+00  3.1279001160802944e-01 -1.1479716034298822e-01 0.0000000000000000e+00  3.9169159285460359e-01 -1.1729727554046358e-01 0.0000000000000000e+00  4.7268722625352938e-01 -1.2029418109839971e-01 0.0000000000000000e+00  5.5728468686613275e-01 -1.2198542746492962e-01 0.0000000000000000e+00  6.4024456645238781e-01 -1.1767532448210323e-01 0.0000000000000000e+00  7.1443249142265675e-01 -1.0001063071784137e-01 0.0000000000000000e+00  0.0000000000000000e+00 0.0000000000000000e+00 0.0000000000000000e+00  2.7445327253298835e-02 -1.1623129198037090e-01 0.0000000000000000e+00  8.7914357350867750e-02 -1.7145967348149799e-01 0.0000000000000000e+00  1.6115568362401983e-01 -1.8834199528395329e-01 0.0000000000000000e+00  2.3761060694644234e-01 -1.9379150413668314e-01 0.0000000000000000e+00  3.1517800482966829e-01 -1.9771088889754479e-01 0.0000000000000000e+00  3.9407299876336843e-01 -2.0264387439855527e-01 0.0000000000000000e+00  4.7565007116347352e-01 -2.0792991257118226e-01 0.0000000000000000e+00  5.6005536303610115e-01 -2.0982446349235270e-01 0.0000000000000000e+00  6.6450643464586068e-01 -2.0330183033792337e-01 0.0000000000000000e+00  7.5027105600138499e-01 -1.8793287583667495e-01 0.0000000000000000e+00  0.0000000000000000e+00 0.0000000000000000e+00 0.0000000000000000e+00  2.7709773166980277e-02 -1.6286252772656287e-01 0.0000000000000000e+00  8.7660281410058355e-02 -2.3637929014612497e-01 0.0000000000000000e+00  1.6027307007665062e-01 -2.5654883457640676e-01 0.0000000000000000e+00  2.3608805224216867e-01 -2.6087350116516517e-01 0.0000000000000000e+00  3.1221979944102801e-01 -2.6223139014451508e-01 0.0000000000000000e+00  3.8765540776659496e-01 -2.6561096207653784e-01 0.0000000000000000e+00  4.6344205149309026e-01 -2.7586269330245056e-01 0.0000000000000000e+00  5.3681353090765460e-01 -2.9302750182542919e-01 0.0000000000000000e+00  5.9908483664772960e-01 -3.1268595022511414e-01 0.0000000000000000e+00  8.1815720819775350e-01 -3.5257191627168549e-01 0.0000000000000000e+00  0.0000000000000000e+00 0.0000000000000000e+00 0.0000000000000000e+00  2.6830852965139422e-02 -2.1557107973107636e-01 0.0000000000000000e+00  8.4870102847037263e-02 -3.1479085307999233e-01 0.0000000000000000e+00  1.5657581467606169e-01 -3.4837393450899024e-01 0.0000000000000000e+00  2.3277532548100749e-01 -3.6074268530476516e-01 0.0000000000000000e+00  3.0783335402016299e-01 -3.6658993402883089e-01 0.0000000000000000e+00  3.7865640800474215e-01 -3.7472739931585469e-01 0.0000000000000000e+00  4.4734108263262257e-01 -3.8876964577371892e-01 0.0000000000000000e+00  5.1122743672186299e-01 -3.9744384439898500e-01 0.0000000000000000e+00  4.9865361025342125e-01 -3.5305158344805715e-01 0.0000000000000000e+00  0.0000000000000000e+00 0.0000000000000000e+00 0.0000000000000000e+00  0.0000000000000000e+00 0.0000000000000000e+00 0.0000000000000000e+00  2.6828585885197629e-02 -2.5545988609457593e-01 0.0000000000000000e+00  8.3022023127231254e-02 -3.6306522288219523e-01 0.0000000000000000e+00  1.5391106846421312e-01 -3.9012660438814134e-01 0.0000000000000000e+00  2.3210371870097027e-01 -3.9022564430666623e-01 0.0000000000000000e+00  3.0880344454379832e-01 -3.7754278362045962e-01 0.0000000000000000e+00  3.7109564086324265e-01 -3.6025554896664957e-01 0.0000000000000000e+00  4.1961079726165051e-01 -3.6175231413333581e-01 0.0000000000000000e+00  4.6960454861087558e-01 -4.0050481851991443e-01 0.0000000000000000e+00  4.7382055805050416e-01 -4.0188089686152229e-01 0.0000000000000000e+00  0.0000000000000000e+00 0.0000000000000000e+00 0.0000000000000000e+00  0.0000000000000000e+00 0.0000000000000000e+00 0.0000000000000000e+00  2.2764539155067716e-02 -3.0670803795212753e-01 0.0000000000000000e+00  6.7597816376824521e-02 -4.4836090685669983e-01 0.0000000000000000e+00  1.3162895504582833e-01 -5.2069507017314942e-01 0.0000000000000000e+00  2.1773228301396985e-01 -5.6602763867917105e-01 0.0000000000000000e+00  2.9616332614514940e-01 -5.5821132744437629e-01 0.0000000000000000e+00  3.3125556145112517e-01 -5.3430789811209090e-01 0.0000000000000000e+00  3.5576687588946970e-01 -5.6916479544668963e-01 0.0000000000000000e+00  4.0665121621395961e-01 -6.0458317226484781e-01 0.0000000000000000e+00  4.4307390884968550e-01 -5.6230043451811162e-01 0.0000000000000000e+00  0.0000000000000000e+00 0.0000000000000000e+00 0.0000000000000000e+00  0.0000000000000000e+00 0.0000000000000000e+00 0.0000000000000000e+00  1.8788218456241391e-02 -3.3166496050019756e-01 0.0000000000000000e+00  5.6493923148033975e-02 -4.6950287615416531e-01 0.0000000000000000e+00  1.2067707285623862e-01 -5.2434389570024909e-01 0.0000000000000000e+00  2.0467335869808864e-01 -5.2431243098651381e-01 0.0000000000000000e+00  2.6008278670234930e-01 -3.9934902257050731e-01 0.0000000000000000e+00  2.6425691164295539e-01 -2.9349731139224788e-01 0.0000000000000000e+00  2.6128043159160547e-01 -2.8543770187363632e-01 0.0000000000000000e+00  2.5984590005432534e-01 -3.5475852175935796e-01 0.0000000000000000e+00  2.7106871810647343e-01 -5.1566456265845351e-01 0.0000000000000000e+00  0.0000000000000000e+00 0.0000000000000000e+00 0.0000000000000000e+00  0.0000000000000000e+00 0.0000000000000000e+00 0.0000000000000000e+00  1.2063890663659415e-02 -3.6597311852401759e-01 0.0000000000000000e+00  3.2338378058662867e-02 -5.3261803033617749e-01 0.0000000000000000e+00  6.1467144497674549e-02 -6.5908919670586608e-01 0.0000000000000000e+00  9.8654256238784141e-02 -7.8150397920951509e-01 0.0000000000000000e+00  1.2804997123343714e-01 -7.0487837086867744e-01 0.0000000000000000e+00  7.9138416876503678e-02 -6.8508911098109804e-01 0.0000000000000000e+00  8.3522619159142275e-02 -8.0404694661398368e-01 0.0000000000000000e+00  8.4879267630485492e-02 -9.1719490418670147e-01 0.0000000000000000e+00  2.0316144665407940e-01 -9.0055122067565796e-01 0.0000000000000000e+00  0.0000000000000000e+00 0.0000000000000000e+00 0.0000000000000000e+00  0.0000000000000000e+00 0.0000000000000000e+00 0.0000000000000000e+00  7.5310183550658652e-03 -3.7036630725521547e-01 0.0000000000000000e+00  1.9281477049760253e-02 -5.2393917429524151e-01 0.0000000000000000e+00  3.5146529770214520e-02 -6.2857020994153545e-01 0.0000000000000000e+00  4.6419016357963951e-02 -6.7829059894576504e-01 0.0000000000000000e+00  0.0000000000000000e+00 0.0000000000000000e+00 0.0000000000000000e+00  0.0000000000000000e+00 0.0000000000000000e+00 0.0000000000000000e+00  0.0000000000000000e+00 0.0000000000000000e+00 0.0000000000000000e+00  0.0000000000000000e+00 0.0000000000000000e+00 0.0000000000000000e+00  0.0000000000000000e+00 0.0000000000000000e+00 0.0000000000000000e+00  0.0000000000000000e+00 0.0000000000000000e+00 0.0000000000000000e+00  </DataArray> 
</PointData> 
</Piece>
</UnstructuredGrid>
</VTKFile>