<?xml version="1.0"?>
<VTKFile type="UnstructuredGrid"  version="0.1"  >
<UnstructuredGrid>
<Piece  NumberOfPoints="121" NumberOfCells="200">
<Points>
<DataArray  type="Float64"  NumberOfComponents="3"  format="ascii">0 0 0  0.1 0 0  0.2 0 0  0.3 0 0  0.4 0 0  0.5 0 0  0.6 0 0  0.7 0 0  0.8 0 0  0.9 0 0  1 0 0  0 0.1 0  0.1 0.1 0  0.2 0.1 0  0.3 0.1 0  0.4 0.1 0  0.5 0.1 0  0.6 0.1 0  0.7 0.1 0  0.8 0.1 0  0.9 0.1 0  1 0.1 0  0 0.2 0  0.1 0.2 0  0.2 0.2 0  0.3 0.2 0  0.4 0.2 0  0.5 0.2 0  0.6 0.2 0  0.7 0.2 0  0.8 0.2 0  0.9 0.2 0  1 0.2 0  0 0.3 0  0.1 0.3 0  0.2 0.3 0  0.3 0.3 0  0.4 0.3 0  0.5 0.3 0  0.6 0.3 0  0.7 0.3 0  0.8 0.3 0  0.9 0.3 0  1 0.3 0  0 0.4 0  0.1 0.4 0  0.2 0.4 0  0.3 0.4 0  0.4 0.4 0  0.5 0.4 0  0.6 0.4 0  0.7 0.4 0  0.8 0.4 0  0.9 0.4 0  1 0.4 0  0 0.5 0  0.1 0.5 0  0.2 0.5 0  0.3 0.5 0  0.4 0.5 0  0.5 0.5 0  0.6 0.5 0  0.7 0.5 0  0.8 0.5 0  0.9 0.5 0  1 0.5 0  0 0.6 0  0.1 0.6 0  0.2 0.6 0  0.3 0.6 0  0.4 0.6 0  0.5 0.6 0  0.6 0.6 0  0.7 0.6 0  0.8 0.6 0  0.9 0.6 0  1 0.6 0  0 0.7 0  0.1 0.7 0  0.2 0.7 0  0.3 0.7 0  0.4 0.7 0  0.5 0.7 0  0.6 0.7 0  0.7 0.7 0  0.8 0.7 0  0.9 0.7 0  1 0.7 0  0 0.8 0  0.1 0.8 0  0.2 0.8 0  0.3 0.8 0  0.4 0.8 0  0.5 0.8 0  0.6 0.8 0  0.7 0.8 0  0.8 0.8 0  0.9 0.8 0  1 0.8 0  0 0.9 0  0.1 0.9 0  0.2 0.9 0  0.3 0.9 0  0.4 0.9 0  0.5 0.9 0  0.6 0.9 0  0.7 0.9 0  0.8 0.9 0  0.9 0.9 0  1 0.9 0  0 1 0  0.1 1 0  0.2 1 0  0.3 1 0  0.4 1 0  0.5 1 0  0.6 1 0  0.7 1 0  0.8 1 0  0.9 1 0  1 1 0  </DataArray>
</Points>
<Cells>
<DataArray  type="UInt32"  Name="connectivity"  format="ascii">0 1 12  0 11 12  1 2 13  1 12 13  2 3 14  2 13 14  3 4 15  3 14 15  4 5 16  4 15 16  5 6 17  5 16 17  6 7 18  6 17 18  7 8 19  7 18 19  8 9 20  8 19 20  9 10 21  9 20 21  11 12 23  11 22 23  12 13 24  12 23 24  13 14 25  13 24 25  14 15 26  14 25 26  15 16 27  15 26 27  16 17 28  16 27 28  17 18 29  17 28 29  18 19 30  18 29 30  19 20 31  19 30 31  20 21 32  20 31 32  22 23 34  22 33 34  23 24 35  23 34 35  24 25 36  24 35 36  25 26 37  25 36 37  26 27 38  26 37 38  27 28 39  27 38 39  28 29 40  28 39 40  29 30 41  29 40 41  30 31 42  30 41 42  31 32 43  31 42 43  33 34 45  33 44 45  34 35 46  34 45 46  35 36 47  35 46 47  36 37 48  36 47 48  37 38 49  37 48 49  38 39 50  38 49 50  39 40 51  39 50 51  40 41 52  40 51 52  41 42 53  41 52 53  42 43 54  42 53 54  44 45 56  44 55 56  45 46 57  45 56 57  46 47 58  46 57 58  47 48 59  47 58 59  48 49 60  48 59 60  49 50 61  49 60 61  50 51 62  50 61 62  51 52 63  51 62 63  52 53 64  52 63 64  53 54 65  53 64 65  55 56 67  55 66 67  56 57 68  56 67 68  57 58 69  57 68 69  58 59 70  58 69 70  59 60 71  59 70 71  60 61 72  60 71 72  61 62 73  61 72 73  62 63 74  62 73 74  63 64 75  63 74 75  64 65 76  64 75 76  66 67 78  66 77 78  67 68 79  67 78 79  68 69 80  68 79 80  69 70 81  69 80 81  70 71 82  70 81 82  71 72 83  71 82 83  72 73 84  72 83 84  73 74 85  73 84 85  74 75 86  74 85 86  75 76 87  75 86 87  77 78 89  77 88 89  78 79 90  78 89 90  79 80 91  79 90 91  80 81 92  80 91 92  81 82 93  81 92 93  82 83 94  82 93 94  83 84 95  83 94 95  84 85 96  84 95 96  85 86 97  85 96 97  86 87 98  86 97 98  88 89 100  88 99 100  89 90 101  89 100 101  90 91 102  90 101 102  91 92 103  91 102 103  92 93 104  92 103 104  93 94 105  93 104 105  94 95 106  94 105 106  95 96 107  95 106 107  96 97 108  96 107 108  97 98 109  97 108 109  99 100 111  99 110 111  100 101 112  100 111 112  101 102 113  101 112 113  102 103 114  102 113 114  103 104 115  103 114 115  104 105 116  104 115 116  105 106 117  105 116 117  106 107 118  106 117 118  107 108 119  107 118 119  108 109 120  108 119 120  </DataArray>
<DataArray  type="UInt32"  Name="offsets"  format="ascii">3 6 9 12 15 18 21 24 27 30 33 36 39 42 45 48 51 54 57 60 63 66 69 72 75 78 81 84 87 90 93 96 99 102 105 108 111 114 117 120 123 126 129 132 135 138 141 144 147 150 153 156 159 162 165 168 171 174 177 180 183 186 189 192 195 198 201 204 207 210 213 216 219 222 225 228 231 234 237 240 243 246 249 252 255 258 261 264 267 270 273 276 279 282 285 288 291 294 297 300 303 306 309 312 315 318 321 324 327 330 333 336 339 342 345 348 351 354 357 360 363 366 369 372 375 378 381 384 387 390 393 396 399 402 405 408 411 414 417 420 423 426 429 432 435 438 441 444 447 450 453 456 459 462 465 468 471 474 477 480 483 486 489 492 495 498 501 504 507 510 513 516 519 522 525 528 531 534 537 540 543 546 549 552 555 558 561 564 567 570 573 576 579 582 585 588 591 594 597 600 </DataArray>
<DataArray  type="UInt8"  Name="types"  format="ascii">5 5 5 5 5 5 5 5 5 5 5 5 5 5 5 5 5 5 5 5 5 5 5 5 5 5 5 5 5 5 5 5 5 5 5 5 5 5 5 5 5 5 5 5 5 5 5 5 5 5 5 5 5 5 5 5 5 5 5 5 5 5 5 5 5 5 5 5 5 5 5 5 5 5 5 5 5 5 5 5 5 5 5 5 5 5 5 5 5 5 5 5 5 5 5 5 5 5 5 5 5 5 5 5 5 5 5 5 5 5 5 5 5 5 5 5 5 5 5 5 5 5 5 5 5 5 5 5 5 5 5 5 5 5 5 5 5 5 5 5 5 5 5 5 5 5 5 5 5 5 5 5 5 5 5 5 5 5 5 5 5 5 5 5 5 5 5 5 5 5 5 5 5 5 5 5 5 5 5 5 5 5 5 5 5 5 5 5 5 5 5 5 5 5 5 5 5 5 5 5 </DataArray>
</Cells>
<PointData  Vectors="f_22"> 
<DataArray  type="Float64"  Name="f_22"  NumberOfComponents="3" format="ascii">0.0000000000000000e+00 0.0000000000000000e+00 0.0000000000000000e+00  0.0000000000000000e+00 0.0000000000000000e+00 0.0000000000000000e+00  0.0000000000000000e+00 0.0000000000000000e+00 0.0000000000000000e+00  0.0000000000000000e+00 0.0000000000000000e+00 0.0000000000000000e+00  0.0000000000000000e+00 0.0000000000000000e+00 0.0000000000000000e+00  0.0000000000000000e+00 0.0000000000000000e+00 0.0000000000000000e+00  0.0000000000000000e+00 0.0000000000000000e+00 0.0000000000000000e+00  0.0000000000000000e+00 0.0000000000000000e+00 0.0000000000000000e+00  0.0000000000000000e+00 0.0000000000000000e+00 0.0000000000000000e+00  0.0000000000000000e+00 0.0000000000000000e+00 0.0000000000000000e+00  0.0000000000000000e+00 0.0000000000000000e+00 0.0000000000000000e+00  0.0000000000000000e+00 0.0000000000000000e+00 0.0000000000000000e+00  1.9353894461962756e-02 -1.9645416687384492e-02 0.0000000000000000e+00  4.7079636126558057e-02 -2.0195116564363381e-02 0.0000000000000000e+00  7.5934877291308267e-02 -2.1278541979399799e-02 0.0000000000000000e+00  1.0780687102380698e-01 -2.3061801430043324e-02 0.0000000000000000e+00  1.4203891693294066e-01 -2.3723368545581876e-02 0.0000000000000000e+00  1.7695431953609689e-01 -2.3489343514902939e-02 0.0000000000000000e+00  2.1185273172873725e-01 -2.3438916520221408e-02 0.0000000000000000e+00  2.4762609440931427e-01 -2.4616266013170459e-02 0.0000000000000000e+00  2.8590657626874322e-01 -2.6922285657214353e-02 0.0000000000000000e+00  3.1350053119377119e-01 -3.1482116747689248e-02 0.0000000000000000e+00  0.0000000000000000e+00 0.0000000000000000e+00 0.0000000000000000e+00  1.8783072018443064e-02 -4.6712252111207768e-02 0.0000000000000000e+00  4.5693935230746774e-02 -4.8269445622275517e-02 0.0000000000000000e+00  7.5239331683044891e-02 -5.2769394075485240e-02 0.0000000000000000e+00  1.0987723434140133e-01 -5.8766245680321703e-02 0.0000000000000000e+00  1.4783175458707287e-01 -6.1320277312769227e-02 0.0000000000000000e+00  1.8625973185646488e-01 -6.0856387873738677e-02 0.0000000000000000e+00  2.2216932578096799e-01 -6.0119564712514589e-02 0.0000000000000000e+00  2.5493871116824757e-01 -6.0651667547086542e-02 0.0000000000000000e+00  2.8158100885132425e-01 -6.0841307227626443e-02 0.0000000000000000e+00  2.9411657277516479e-01 -6.0997284286991499e-02 0.0000000000000000e+00  0.0000000000000000e+00 0.0000000000000000e+00 0.0000000000000000e+00  1.8540425331798328e-02 -7.2558551677980587e-02 0.0000000000000000e+00  4.5531185921082629e-02 -7.5930618277897127e-02 0.0000000000000000e+00  7.6106860609533394e-02 -8.5494242691275327e-02 0.0000000000000000e+00  1.1218867604299042e-01 -9.6482348794463976e-02 0.0000000000000000e+00  1.5044172450761367e-01 -1.0013818016989159e-01 0.0000000000000000e+00  1.8668276534190711e-01 -9.6692269389164975e-02 0.0000000000000000e+00  2.1557737668560387e-01 -8.9552200862893255e-02 0.0000000000000000e+00  2.3550786772205987e-01 -8.1565162752512313e-02 0.0000000000000000e+00  2.4376066509532374e-01 -7.2705430600515555e-02 0.0000000000000000e+00  2.3844047214559214e-01 -6.0080619504033518e-02 0.0000000000000000e+00  0.0000000000000000e+00 0.0000000000000000e+00 0.0000000000000000e+00  1.8696008006694950e-02 -9.8679338484908410e-02 0.0000000000000000e+00  4.5964013819714163e-02 -1.0436548872251504e-01 0.0000000000000000e+00  7.6807515189396700e-02 -1.1912071524833592e-01 0.0000000000000000e+00  1.1207855217318846e-01 -1.3373099973317293e-01 0.0000000000000000e+00  1.4747290075705671e-01 -1.3594737210266103e-01 0.0000000000000000e+00  1.7950932083332144e-01 -1.2668334071194748e-01 0.0000000000000000e+00  2.0473506515985404e-01 -1.1073254777001391e-01 0.0000000000000000e+00  2.2364736410554353e-01 -9.6331573093846587e-02 0.0000000000000000e+00  2.3774294891305864e-01 -8.3637377209724889e-02 0.0000000000000000e+00  2.6598731271778298e-01 -5.1313149272198176e-02 0.0000000000000000e+00  0.0000000000000000e+00 0.0000000000000000e+00 0.0000000000000000e+00  1.7060867907671827e-02 -1.2379997164969243e-01 0.0000000000000000e+00  4.1335635536160840e-02 -1.3169568737585055e-01 0.0000000000000000e+00  6.8374560949178362e-02 -1.5118999987883885e-01 0.0000000000000000e+00  9.7731468004039423e-02 -1.6836704815918371e-01 0.0000000000000000e+00  1.2577556806583806e-01 -1.7003628062428106e-01 0.0000000000000000e+00  1.5393176413921397e-01 -1.5958690435474285e-01 0.0000000000000000e+00  1.8659812226627731e-01 -1.4289442213342923e-01 0.0000000000000000e+00  2.2714926995295448e-01 -1.2700178217967298e-01 0.0000000000000000e+00  2.7938444525962131e-01 -1.0514799351369457e-01 0.0000000000000000e+00  0.0000000000000000e+00 0.0000000000000000e+00 0.0000000000000000e+00  0.0000000000000000e+00 0.0000000000000000e+00 0.0000000000000000e+00  1.2697624299643381e-02 -1.4395291230489812e-01 0.0000000000000000e+00  2.8889529625646160e-02 -1.5237393507470404e-01 0.0000000000000000e+00  4.6099401452401323e-02 -1.7387755724654325e-01 0.0000000000000000e+00  6.3567810025591573e-02 -1.8805528152595061e-01 0.0000000000000000e+00  8.1005888192544659e-02 -1.8330695231034355e-01 0.0000000000000000e+00  1.0661728373627015e-01 -1.6996479855655250e-01 0.0000000000000000e+00  1.5210412171012466e-01 -1.6289096570192133e-01 0.0000000000000000e+00  2.2675875167257134e-01 -1.6987983263232195e-01 0.0000000000000000e+00  3.1884093197710422e-01 -1.5320423059261759e-01 0.0000000000000000e+00  0.0000000000000000e+00 0.0000000000000000e+00 0.0000000000000000e+00  0.0000000000000000e+00 0.0000000000000000e+00 0.0000000000000000e+00  4.7634627425854129e-03 -1.5318681970727893e-01 0.0000000000000000e+00  5.5026216399200901e-03 -1.6177687154117554e-01 0.0000000000000000e+00  5.1414436715033077e-03 -1.8844603119837461e-01 0.0000000000000000e+00  3.9599211802197653e-03 -2.0813214200339447e-01 0.0000000000000000e+00  5.5983806288474177e-03 -2.2370958938036581e-01 0.0000000000000000e+00  2.7561970486389815e-02 -2.6387492930190531e-01 0.0000000000000000e+00  9.6591102699293607e-02 -3.3570794225511302e-01 0.0000000000000000e+00  2.3307969628388261e-01 -3.9759642646066695e-01 0.0000000000000000e+00  3.5558222968478781e-01 -3.3652463222790885e-01 0.0000000000000000e+00  0.0000000000000000e+00 0.0000000000000000e+00 0.0000000000000000e+00  0.0000000000000000e+00 0.0000000000000000e+00 0.0000000000000000e+00  -7.6087551716353804e-03 -1.4885532093705495e-01 0.0000000000000000e+00  -2.7352433188543426e-02 -1.5178162545427465e-01 0.0000000000000000e+00  -4.5106322623173274e-02 -1.6788857847407909e-01 0.0000000000000000e+00  -5.3444787722104370e-02 -1.6518301002761304e-01 0.0000000000000000e+00  -4.4668775142260746e-02 -1.6009155443195397e-01 0.0000000000000000e+00  1.2717511181865400e-02 -1.7712524557131459e-01 0.0000000000000000e+00  1.3070575226749490e-01 -2.0046645737629976e-01 0.0000000000000000e+00  2.7879742167960458e-01 -2.3480135963464879e-01 0.0000000000000000e+00  3.8215954731590401e-01 -3.1751856348563490e-01 0.0000000000000000e+00  0.0000000000000000e+00 0.0000000000000000e+00 0.0000000000000000e+00  0.0000000000000000e+00 0.0000000000000000e+00 0.0000000000000000e+00  -2.1393274976455344e-02 -1.1443743442677411e-01 0.0000000000000000e+00  -6.6927079108360932e-02 -1.0880831823489394e-01 0.0000000000000000e+00  -1.0780345028120301e-01 -1.5957626033397121e-01 0.0000000000000000e+00  -9.5928247182788293e-02 -2.7641215232391142e-01 0.0000000000000000e+00  -1.1609372461398289e-02 -4.1079395625558379e-01 0.0000000000000000e+00  6.3271073327384200e-02 -5.7955984074675893e-01 0.0000000000000000e+00  1.2502817345753600e-01 -7.9533177832113278e-01 0.0000000000000000e+00  1.7828589542798998e-01 -1.0481829596978929e+00 0.0000000000000000e+00  4.3471500323677803e-01 -1.2234715163774854e+00 0.0000000000000000e+00  0.0000000000000000e+00 0.0000000000000000e+00 0.0000000000000000e+00  0.0000000000000000e+00 0.0000000000000000e+00 0.0000000000000000e+00  -2.9945764193355633e-02 -8.3493338385272994e-02 0.0000000000000000e+00  -9.5275885083089262e-02 -7.0415777912004873e-02 0.0000000000000000e+00  -1.6907618576026179e-01 -1.3881888117170060e-01 0.0000000000000000e+00  -1.4638697916695484e-01 -2.8373228961037605e-01 0.0000000000000000e+00  0.0000000000000000e+00 0.0000000000000000e+00 0.0000000000000000e+00  0.0000000000000000e+00 0.0000000000000000e+00 0.0000000000000000e+00  0.0000000000000000e+00 0.0000000000000000e+00 0.0000000000000000e+00  0.0000000000000000e+00 0.0000000000000000e+00 0.0000000000000000e+00  0.0000000000000000e+00 0.0000000000000000e+00 0.0000000000000000e+00  0.0000000000000000e+00 0.0000000000000000e+00 0.0000000000000000e+00  </DataArray> 
</PointData> 
</Piece>
</UnstructuredGrid>
</VTKFile>