<?xml version="1.0"?>
<VTKFile type="UnstructuredGrid"  version="0.1"  >
<UnstructuredGrid>
<Piece  NumberOfPoints="121" NumberOfCells="200">
<Points>
<DataArray  type="Float64"  NumberOfComponents="3"  format="ascii">0 0 0  0.1 0 0  0.2 0 0  0.3 0 0  0.4 0 0  0.5 0 0  0.6 0 0  0.7 0 0  0.8 0 0  0.9 0 0  1 0 0  0 0.1 0  0.1 0.1 0  0.2 0.1 0  0.3 0.1 0  0.4 0.1 0  0.5 0.1 0  0.6 0.1 0  0.7 0.1 0  0.8 0.1 0  0.9 0.1 0  1 0.1 0  0 0.2 0  0.1 0.2 0  0.2 0.2 0  0.3 0.2 0  0.4 0.2 0  0.5 0.2 0  0.6 0.2 0  0.7 0.2 0  0.8 0.2 0  0.9 0.2 0  1 0.2 0  0 0.3 0  0.1 0.3 0  0.2 0.3 0  0.3 0.3 0  0.4 0.3 0  0.5 0.3 0  0.6 0.3 0  0.7 0.3 0  0.8 0.3 0  0.9 0.3 0  1 0.3 0  0 0.4 0  0.1 0.4 0  0.2 0.4 0  0.3 0.4 0  0.4 0.4 0  0.5 0.4 0  0.6 0.4 0  0.7 0.4 0  0.8 0.4 0  0.9 0.4 0  1 0.4 0  0 0.5 0  0.1 0.5 0  0.2 0.5 0  0.3 0.5 0  0.4 0.5 0  0.5 0.5 0  0.6 0.5 0  0.7 0.5 0  0.8 0.5 0  0.9 0.5 0  1 0.5 0  0 0.6 0  0.1 0.6 0  0.2 0.6 0  0.3 0.6 0  0.4 0.6 0  0.5 0.6 0  0.6 0.6 0  0.7 0.6 0  0.8 0.6 0  0.9 0.6 0  1 0.6 0  0 0.7 0  0.1 0.7 0  0.2 0.7 0  0.3 0.7 0  0.4 0.7 0  0.5 0.7 0  0.6 0.7 0  0.7 0.7 0  0.8 0.7 0  0.9 0.7 0  1 0.7 0  0 0.8 0  0.1 0.8 0  0.2 0.8 0  0.3 0.8 0  0.4 0.8 0  0.5 0.8 0  0.6 0.8 0  0.7 0.8 0  0.8 0.8 0  0.9 0.8 0  1 0.8 0  0 0.9 0  0.1 0.9 0  0.2 0.9 0  0.3 0.9 0  0.4 0.9 0  0.5 0.9 0  0.6 0.9 0  0.7 0.9 0  0.8 0.9 0  0.9 0.9 0  1 0.9 0  0 1 0  0.1 1 0  0.2 1 0  0.3 1 0  0.4 1 0  0.5 1 0  0.6 1 0  0.7 1 0  0.8 1 0  0.9 1 0  1 1 0  </DataArray>
</Points>
<Cells>
<DataArray  type="UInt32"  Name="connectivity"  format="ascii">0 1 12  0 11 12  1 2 13  1 12 13  2 3 14  2 13 14  3 4 15  3 14 15  4 5 16  4 15 16  5 6 17  5 16 17  6 7 18  6 17 18  7 8 19  7 18 19  8 9 20  8 19 20  9 10 21  9 20 21  11 12 23  11 22 23  12 13 24  12 23 24  13 14 25  13 24 25  14 15 26  14 25 26  15 16 27  15 26 27  16 17 28  16 27 28  17 18 29  17 28 29  18 19 30  18 29 30  19 20 31  19 30 31  20 21 32  20 31 32  22 23 34  22 33 34  23 24 35  23 34 35  24 25 36  24 35 36  25 26 37  25 36 37  26 27 38  26 37 38  27 28 39  27 38 39  28 29 40  28 39 40  29 30 41  29 40 41  30 31 42  30 41 42  31 32 43  31 42 43  33 34 45  33 44 45  34 35 46  34 45 46  35 36 47  35 46 47  36 37 48  36 47 48  37 38 49  37 48 49  38 39 50  38 49 50  39 40 51  39 50 51  40 41 52  40 51 52  41 42 53  41 52 53  42 43 54  42 53 54  44 45 56  44 55 56  45 46 57  45 56 57  46 47 58  46 57 58  47 48 59  47 58 59  48 49 60  48 59 60  49 50 61  49 60 61  50 51 62  50 61 62  51 52 63  51 62 63  52 53 64  52 63 64  53 54 65  53 64 65  55 56 67  55 66 67  56 57 68  56 67 68  57 58 69  57 68 69  58 59 70  58 69 70  59 60 71  59 70 71  60 61 72  60 71 72  61 62 73  61 72 73  62 63 74  62 73 74  63 64 75  63 74 75  64 65 76  64 75 76  66 67 78  66 77 78  67 68 79  67 78 79  68 69 80  68 79 80  69 70 81  69 80 81  70 71 82  70 81 82  71 72 83  71 82 83  72 73 84  72 83 84  73 74 85  73 84 85  74 75 86  74 85 86  75 76 87  75 86 87  77 78 89  77 88 89  78 79 90  78 89 90  79 80 91  79 90 91  80 81 92  80 91 92  81 82 93  81 92 93  82 83 94  82 93 94  83 84 95  83 94 95  84 85 96  84 95 96  85 86 97  85 96 97  86 87 98  86 97 98  88 89 100  88 99 100  89 90 101  89 100 101  90 91 102  90 101 102  91 92 103  91 102 103  92 93 104  92 103 104  93 94 105  93 104 105  94 95 106  94 105 106  95 96 107  95 106 107  96 97 108  96 107 108  97 98 109  97 108 109  99 100 111  99 110 111  100 101 112  100 111 112  101 102 113  101 112 113  102 103 114  102 113 114  103 104 115  103 114 115  104 105 116  104 115 116  105 106 117  105 116 117  106 107 118  106 117 118  107 108 119  107 118 119  108 109 120  108 119 120  </DataArray>
<DataArray  type="UInt32"  Name="offsets"  format="ascii">3 6 9 12 15 18 21 24 27 30 33 36 39 42 45 48 51 54 57 60 63 66 69 72 75 78 81 84 87 90 93 96 99 102 105 108 111 114 117 120 123 126 129 132 135 138 141 144 147 150 153 156 159 162 165 168 171 174 177 180 183 186 189 192 195 198 201 204 207 210 213 216 219 222 225 228 231 234 237 240 243 246 249 252 255 258 261 264 267 270 273 276 279 282 285 288 291 294 297 300 303 306 309 312 315 318 321 324 327 330 333 336 339 342 345 348 351 354 357 360 363 366 369 372 375 378 381 384 387 390 393 396 399 402 405 408 411 414 417 420 423 426 429 432 435 438 441 444 447 450 453 456 459 462 465 468 471 474 477 480 483 486 489 492 495 498 501 504 507 510 513 516 519 522 525 528 531 534 537 540 543 546 549 552 555 558 561 564 567 570 573 576 579 582 585 588 591 594 597 600 </DataArray>
<DataArray  type="UInt8"  Name="types"  format="ascii">5 5 5 5 5 5 5 5 5 5 5 5 5 5 5 5 5 5 5 5 5 5 5 5 5 5 5 5 5 5 5 5 5 5 5 5 5 5 5 5 5 5 5 5 5 5 5 5 5 5 5 5 5 5 5 5 5 5 5 5 5 5 5 5 5 5 5 5 5 5 5 5 5 5 5 5 5 5 5 5 5 5 5 5 5 5 5 5 5 5 5 5 5 5 5 5 5 5 5 5 5 5 5 5 5 5 5 5 5 5 5 5 5 5 5 5 5 5 5 5 5 5 5 5 5 5 5 5 5 5 5 5 5 5 5 5 5 5 5 5 5 5 5 5 5 5 5 5 5 5 5 5 5 5 5 5 5 5 5 5 5 5 5 5 5 5 5 5 5 5 5 5 5 5 5 5 5 5 5 5 5 5 5 5 5 5 5 5 5 5 5 5 5 5 5 5 5 5 5 5 </DataArray>
</Cells>
<PointData  Vectors="f_22"> 
<DataArray  type="Float64"  Name="f_22"  NumberOfComponents="3" format="ascii">0.0000000000000000e+00 0.0000000000000000e+00 0.0000000000000000e+00  0.0000000000000000e+00 0.0000000000000000e+00 0.0000000000000000e+00  0.0000000000000000e+00 0.0000000000000000e+00 0.0000000000000000e+00  0.0000000000000000e+00 0.0000000000000000e+00 0.0000000000000000e+00  0.0000000000000000e+00 0.0000000000000000e+00 0.0000000000000000e+00  0.0000000000000000e+00 0.0000000000000000e+00 0.0000000000000000e+00  0.0000000000000000e+00 0.0000000000000000e+00 0.0000000000000000e+00  0.0000000000000000e+00 0.0000000000000000e+00 0.0000000000000000e+00  0.0000000000000000e+00 0.0000000000000000e+00 0.0000000000000000e+00  0.0000000000000000e+00 0.0000000000000000e+00 0.0000000000000000e+00  0.0000000000000000e+00 0.0000000000000000e+00 0.0000000000000000e+00  0.0000000000000000e+00 0.0000000000000000e+00 0.0000000000000000e+00  -1.7581217479934529e-02 1.7171428534783546e-02 0.0000000000000000e+00  -4.8827600717534968e-02 1.8185013547887416e-02 0.0000000000000000e+00  -7.4371915052942633e-02 1.3264270136026180e-02 0.0000000000000000e+00  -9.1662117841170551e-02 9.7983907442424113e-03 0.0000000000000000e+00  -1.0420491299943971e-01 7.5028424295460489e-03 0.0000000000000000e+00  -1.1193861445414170e-01 4.6685096528500643e-03 0.0000000000000000e+00  -1.1270047601602814e-01 -1.4782763386156068e-03 0.0000000000000000e+00  -1.0019156288098702e-01 -1.4379566705602701e-02 0.0000000000000000e+00  -5.4841078709339318e-02 -3.4289293391410250e-02 0.0000000000000000e+00  -1.7249427685728687e-02 -5.3327947481062545e-02 0.0000000000000000e+00  0.0000000000000000e+00 0.0000000000000000e+00 0.0000000000000000e+00  -2.2066325626146480e-02 5.0457215551810528e-02 0.0000000000000000e+00  -5.6946608524392824e-02 4.9096053547223385e-02 0.0000000000000000e+00  -8.1634223983505158e-02 3.3468432224035782e-02 0.0000000000000000e+00  -9.4920060286905000e-02 2.2342317140158035e-02 0.0000000000000000e+00  -1.0375555815790553e-01 1.5446568848975667e-02 0.0000000000000000e+00  -1.0607287688703083e-01 8.5212986766093519e-03 0.0000000000000000e+00  -1.1037312118029803e-01 -7.0860684923600044e-03 0.0000000000000000e+00  -9.8891007605038481e-02 -3.6107322037816678e-02 0.0000000000000000e+00  -8.1594915708658844e-02 -7.7613650684587934e-02 0.0000000000000000e+00  -6.7062881800617147e-02 -1.1079324318786765e-01 0.0000000000000000e+00  0.0000000000000000e+00 0.0000000000000000e+00 0.0000000000000000e+00  -2.0013876653101642e-02 8.4027214383408599e-02 0.0000000000000000e+00  -5.1112872424255169e-02 7.8138223940312113e-02 0.0000000000000000e+00  -7.1801089650990899e-02 4.9848379745537554e-02 0.0000000000000000e+00  -8.1254026611206481e-02 3.0971804572025852e-02 0.0000000000000000e+00  -9.1343820036900045e-02 2.1832118091658512e-02 0.0000000000000000e+00  -9.4083878899831344e-02 1.5822494294606505e-02 0.0000000000000000e+00  -1.2475132777952681e-01 -2.8507038562701958e-04 0.0000000000000000e+00  -1.2480970438894809e-01 -2.1688890818804939e-02 0.0000000000000000e+00  -2.0541902928312863e-01 -6.4085917282730942e-02 0.0000000000000000e+00  -2.2659121993869288e-01 -1.1152372431296589e-01 0.0000000000000000e+00  0.0000000000000000e+00 0.0000000000000000e+00 0.0000000000000000e+00  -1.9042231770339670e-02 1.1479212093656775e-01 0.0000000000000000e+00  -4.8056747979559535e-02 1.0396454723940304e-01 0.0000000000000000e+00  -6.7929463269922538e-02 6.3791876574372949e-02 0.0000000000000000e+00  -7.7193748276627117e-02 3.9945587874933852e-02 0.0000000000000000e+00  -9.5994150719744278e-02 3.3384908547553840e-02 0.0000000000000000e+00  -1.0204773232527745e-01 3.4860412484585893e-02 0.0000000000000000e+00  -1.7020316478097991e-01 3.2686717095187071e-02 0.0000000000000000e+00  -1.5917263914522553e-01 4.4945638628257914e-02 0.0000000000000000e+00  -3.7798977082037227e-01 7.7548066950711312e-03 0.0000000000000000e+00  -3.6501414763804524e-01 -5.0263205512276157e-02 0.0000000000000000e+00  0.0000000000000000e+00 0.0000000000000000e+00 0.0000000000000000e+00  -1.9486212577030100e-02 1.4493072936230003e-01 0.0000000000000000e+00  -4.8591196508792067e-02 1.2922828908740988e-01 0.0000000000000000e+00  -7.0583353372041954e-02 7.8917524697252731e-02 0.0000000000000000e+00  -8.3138181643036699e-02 5.4382146160526328e-02 0.0000000000000000e+00  -1.1855782370312566e-01 5.5803343373632339e-02 0.0000000000000000e+00  -1.2688494834758002e-01 6.8560841547647772e-02 0.0000000000000000e+00  -2.3355382164168972e-01 8.2408538218735908e-02 0.0000000000000000e+00  -1.7275066040844772e-01 1.1311166035613318e-01 0.0000000000000000e+00  -4.4417663860035794e-01 8.8995435678225945e-02 0.0000000000000000e+00  0.0000000000000000e+00 0.0000000000000000e+00 0.0000000000000000e+00  0.0000000000000000e+00 0.0000000000000000e+00 0.0000000000000000e+00  -2.0652476859167098e-02 1.7608649811982788e-01 0.0000000000000000e+00  -5.1995716401874337e-02 1.5642050898475116e-01 0.0000000000000000e+00  -8.0039148892823098e-02 9.9530179098744981e-02 0.0000000000000000e+00  -1.0261605201826624e-01 8.0462115410190035e-02 0.0000000000000000e+00  -1.6270474678798996e-01 9.5298721447388601e-02 0.0000000000000000e+00  -1.7390412186483864e-01 1.1845035687912372e-01 0.0000000000000000e+00  -3.2314483285930251e-01 1.3909205631103030e-01 0.0000000000000000e+00  -2.0807525083280090e-01 1.6157523600805299e-01 0.0000000000000000e+00  -5.0592360547488979e-01 9.2473900220308158e-02 0.0000000000000000e+00  0.0000000000000000e+00 0.0000000000000000e+00 0.0000000000000000e+00  0.0000000000000000e+00 0.0000000000000000e+00 0.0000000000000000e+00  -2.1712030154569767e-02 2.0922370415811525e-01 0.0000000000000000e+00  -5.7707777840079758e-02 1.8884209598389620e-01 0.0000000000000000e+00  -9.6501975024783013e-02 1.3258214991498871e-01 0.0000000000000000e+00  -1.4047764411290939e-01 1.2663329851169158e-01 0.0000000000000000e+00  -2.2767781717050087e-01 1.5774014719484930e-01 0.0000000000000000e+00  -2.5267795276676397e-01 1.8530734896112699e-01 0.0000000000000000e+00  -4.3401478561507739e-01 2.0468114384677058e-01 0.0000000000000000e+00  -2.7149995760802048e-01 1.8420022035829697e-01 0.0000000000000000e+00  -6.0840900686479082e-01 7.7545040317179445e-02 0.0000000000000000e+00  0.0000000000000000e+00 0.0000000000000000e+00 0.0000000000000000e+00  0.0000000000000000e+00 0.0000000000000000e+00 0.0000000000000000e+00  -2.0884910130077743e-02 2.4350296767235688e-01 0.0000000000000000e+00  -6.1307498582380340e-02 2.2972211377403584e-01 0.0000000000000000e+00  -1.1224936368936704e-01 1.8744859511116013e-01 0.0000000000000000e+00  -1.9406583641265163e-01 2.0393348178310153e-01 0.0000000000000000e+00  -3.0207034273389427e-01 2.4667606250978355e-01 0.0000000000000000e+00  -3.6204078769206938e-01 2.7227199617505499e-01 0.0000000000000000e+00  -5.2615797802137998e-01 2.7460628648595625e-01 0.0000000000000000e+00  -3.7363308968661452e-01 1.6926673968010406e-01 0.0000000000000000e+00  -6.7614355785508373e-01 4.5069725728017276e-02 0.0000000000000000e+00  0.0000000000000000e+00 0.0000000000000000e+00 0.0000000000000000e+00  0.0000000000000000e+00 0.0000000000000000e+00 0.0000000000000000e+00  -1.6112538377032193e-02 2.7388161479096013e-01 0.0000000000000000e+00  -5.1290797369283041e-02 2.7574736179293741e-01 0.0000000000000000e+00  -1.0634774938440404e-01 2.6391093661125747e-01 0.0000000000000000e+00  -2.2748566674657486e-01 3.0529651405493541e-01 0.0000000000000000e+00  -3.3109734744043484e-01 3.3606784095080744e-01 0.0000000000000000e+00  -4.3798691625386638e-01 3.6125251133666791e-01 0.0000000000000000e+00  -5.6352500540737549e-01 3.1922801145818219e-01 0.0000000000000000e+00  -5.0288533518821699e-01 1.0931032858224159e-01 0.0000000000000000e+00  -6.3066603612447025e-01 -1.7815106147328636e-02 0.0000000000000000e+00  0.0000000000000000e+00 0.0000000000000000e+00 0.0000000000000000e+00  0.0000000000000000e+00 0.0000000000000000e+00 0.0000000000000000e+00  -8.1810688058700492e-03 2.8918156265512468e-01 0.0000000000000000e+00  -2.8127331314651654e-02 3.0450562457996111e-01 0.0000000000000000e+00  -7.7048525932355089e-02 3.2581081046291999e-01 0.0000000000000000e+00  -2.3352242921428426e-01 4.8631450179386571e-01 0.0000000000000000e+00  0.0000000000000000e+00 0.0000000000000000e+00 0.0000000000000000e+00  0.0000000000000000e+00 0.0000000000000000e+00 0.0000000000000000e+00  0.0000000000000000e+00 0.0000000000000000e+00 0.0000000000000000e+00  0.0000000000000000e+00 0.0000000000000000e+00 0.0000000000000000e+00  0.0000000000000000e+00 0.0000000000000000e+00 0.0000000000000000e+00  0.0000000000000000e+00 0.0000000000000000e+00 0.0000000000000000e+00  </DataArray> 
</PointData> 
</Piece>
</UnstructuredGrid>
</VTKFile>