<?xml version="1.0"?>
<VTKFile type="UnstructuredGrid"  version="0.1"  >
<UnstructuredGrid>
<Piece  NumberOfPoints="121" NumberOfCells="200">
<Points>
<DataArray  type="Float64"  NumberOfComponents="3"  format="ascii">0 0 0  0.1 0 0  0.2 0 0  0.3 0 0  0.4 0 0  0.5 0 0  0.6 0 0  0.7 0 0  0.8 0 0  0.9 0 0  1 0 0  0 0.1 0  0.1 0.1 0  0.2 0.1 0  0.3 0.1 0  0.4 0.1 0  0.5 0.1 0  0.6 0.1 0  0.7 0.1 0  0.8 0.1 0  0.9 0.1 0  1 0.1 0  0 0.2 0  0.1 0.2 0  0.2 0.2 0  0.3 0.2 0  0.4 0.2 0  0.5 0.2 0  0.6 0.2 0  0.7 0.2 0  0.8 0.2 0  0.9 0.2 0  1 0.2 0  0 0.3 0  0.1 0.3 0  0.2 0.3 0  0.3 0.3 0  0.4 0.3 0  0.5 0.3 0  0.6 0.3 0  0.7 0.3 0  0.8 0.3 0  0.9 0.3 0  1 0.3 0  0 0.4 0  0.1 0.4 0  0.2 0.4 0  0.3 0.4 0  0.4 0.4 0  0.5 0.4 0  0.6 0.4 0  0.7 0.4 0  0.8 0.4 0  0.9 0.4 0  1 0.4 0  0 0.5 0  0.1 0.5 0  0.2 0.5 0  0.3 0.5 0  0.4 0.5 0  0.5 0.5 0  0.6 0.5 0  0.7 0.5 0  0.8 0.5 0  0.9 0.5 0  1 0.5 0  0 0.6 0  0.1 0.6 0  0.2 0.6 0  0.3 0.6 0  0.4 0.6 0  0.5 0.6 0  0.6 0.6 0  0.7 0.6 0  0.8 0.6 0  0.9 0.6 0  1 0.6 0  0 0.7 0  0.1 0.7 0  0.2 0.7 0  0.3 0.7 0  0.4 0.7 0  0.5 0.7 0  0.6 0.7 0  0.7 0.7 0  0.8 0.7 0  0.9 0.7 0  1 0.7 0  0 0.8 0  0.1 0.8 0  0.2 0.8 0  0.3 0.8 0  0.4 0.8 0  0.5 0.8 0  0.6 0.8 0  0.7 0.8 0  0.8 0.8 0  0.9 0.8 0  1 0.8 0  0 0.9 0  0.1 0.9 0  0.2 0.9 0  0.3 0.9 0  0.4 0.9 0  0.5 0.9 0  0.6 0.9 0  0.7 0.9 0  0.8 0.9 0  0.9 0.9 0  1 0.9 0  0 1 0  0.1 1 0  0.2 1 0  0.3 1 0  0.4 1 0  0.5 1 0  0.6 1 0  0.7 1 0  0.8 1 0  0.9 1 0  1 1 0  </DataArray>
</Points>
<Cells>
<DataArray  type="UInt32"  Name="connectivity"  format="ascii">0 1 12  0 11 12  1 2 13  1 12 13  2 3 14  2 13 14  3 4 15  3 14 15  4 5 16  4 15 16  5 6 17  5 16 17  6 7 18  6 17 18  7 8 19  7 18 19  8 9 20  8 19 20  9 10 21  9 20 21  11 12 23  11 22 23  12 13 24  12 23 24  13 14 25  13 24 25  14 15 26  14 25 26  15 16 27  15 26 27  16 17 28  16 27 28  17 18 29  17 28 29  18 19 30  18 29 30  19 20 31  19 30 31  20 21 32  20 31 32  22 23 34  22 33 34  23 24 35  23 34 35  24 25 36  24 35 36  25 26 37  25 36 37  26 27 38  26 37 38  27 28 39  27 38 39  28 29 40  28 39 40  29 30 41  29 40 41  30 31 42  30 41 42  31 32 43  31 42 43  33 34 45  33 44 45  34 35 46  34 45 46  35 36 47  35 46 47  36 37 48  36 47 48  37 38 49  37 48 49  38 39 50  38 49 50  39 40 51  39 50 51  40 41 52  40 51 52  41 42 53  41 52 53  42 43 54  42 53 54  44 45 56  44 55 56  45 46 57  45 56 57  46 47 58  46 57 58  47 48 59  47 58 59  48 49 60  48 59 60  49 50 61  49 60 61  50 51 62  50 61 62  51 52 63  51 62 63  52 53 64  52 63 64  53 54 65  53 64 65  55 56 67  55 66 67  56 57 68  56 67 68  57 58 69  57 68 69  58 59 70  58 69 70  59 60 71  59 70 71  60 61 72  60 71 72  61 62 73  61 72 73  62 63 74  62 73 74  63 64 75  63 74 75  64 65 76  64 75 76  66 67 78  66 77 78  67 68 79  67 78 79  68 69 80  68 79 80  69 70 81  69 80 81  70 71 82  70 81 82  71 72 83  71 82 83  72 73 84  72 83 84  73 74 85  73 84 85  74 75 86  74 85 86  75 76 87  75 86 87  77 78 89  77 88 89  78 79 90  78 89 90  79 80 91  79 90 91  80 81 92  80 91 92  81 82 93  81 92 93  82 83 94  82 93 94  83 84 95  83 94 95  84 85 96  84 95 96  85 86 97  85 96 97  86 87 98  86 97 98  88 89 100  88 99 100  89 90 101  89 100 101  90 91 102  90 101 102  91 92 103  91 102 103  92 93 104  92 103 104  93 94 105  93 104 105  94 95 106  94 105 106  95 96 107  95 106 107  96 97 108  96 107 108  97 98 109  97 108 109  99 100 111  99 110 111  100 101 112  100 111 112  101 102 113  101 112 113  102 103 114  102 113 114  103 104 115  103 114 115  104 105 116  104 115 116  105 106 117  105 116 117  106 107 118  106 117 118  107 108 119  107 118 119  108 109 120  108 119 120  </DataArray>
<DataArray  type="UInt32"  Name="offsets"  format="ascii">3 6 9 12 15 18 21 24 27 30 33 36 39 42 45 48 51 54 57 60 63 66 69 72 75 78 81 84 87 90 93 96 99 102 105 108 111 114 117 120 123 126 129 132 135 138 141 144 147 150 153 156 159 162 165 168 171 174 177 180 183 186 189 192 195 198 201 204 207 210 213 216 219 222 225 228 231 234 237 240 243 246 249 252 255 258 261 264 267 270 273 276 279 282 285 288 291 294 297 300 303 306 309 312 315 318 321 324 327 330 333 336 339 342 345 348 351 354 357 360 363 366 369 372 375 378 381 384 387 390 393 396 399 402 405 408 411 414 417 420 423 426 429 432 435 438 441 444 447 450 453 456 459 462 465 468 471 474 477 480 483 486 489 492 495 498 501 504 507 510 513 516 519 522 525 528 531 534 537 540 543 546 549 552 555 558 561 564 567 570 573 576 579 582 585 588 591 594 597 600 </DataArray>
<DataArray  type="UInt8"  Name="types"  format="ascii">5 5 5 5 5 5 5 5 5 5 5 5 5 5 5 5 5 5 5 5 5 5 5 5 5 5 5 5 5 5 5 5 5 5 5 5 5 5 5 5 5 5 5 5 5 5 5 5 5 5 5 5 5 5 5 5 5 5 5 5 5 5 5 5 5 5 5 5 5 5 5 5 5 5 5 5 5 5 5 5 5 5 5 5 5 5 5 5 5 5 5 5 5 5 5 5 5 5 5 5 5 5 5 5 5 5 5 5 5 5 5 5 5 5 5 5 5 5 5 5 5 5 5 5 5 5 5 5 5 5 5 5 5 5 5 5 5 5 5 5 5 5 5 5 5 5 5 5 5 5 5 5 5 5 5 5 5 5 5 5 5 5 5 5 5 5 5 5 5 5 5 5 5 5 5 5 5 5 5 5 5 5 5 5 5 5 5 5 5 5 5 5 5 5 5 5 5 5 5 5 </DataArray>
</Cells>
<PointData  Vectors="f_47"> 
<DataArray  type="Float64"  Name="f_47"  NumberOfComponents="3" format="ascii">0.0000000000000000e+00 0.0000000000000000e+00 0.0000000000000000e+00  0.0000000000000000e+00 0.0000000000000000e+00 0.0000000000000000e+00  0.0000000000000000e+00 0.0000000000000000e+00 0.0000000000000000e+00  0.0000000000000000e+00 0.0000000000000000e+00 0.0000000000000000e+00  0.0000000000000000e+00 0.0000000000000000e+00 0.0000000000000000e+00  0.0000000000000000e+00 0.0000000000000000e+00 0.0000000000000000e+00  0.0000000000000000e+00 0.0000000000000000e+00 0.0000000000000000e+00  0.0000000000000000e+00 0.0000000000000000e+00 0.0000000000000000e+00  0.0000000000000000e+00 0.0000000000000000e+00 0.0000000000000000e+00  0.0000000000000000e+00 0.0000000000000000e+00 0.0000000000000000e+00  0.0000000000000000e+00 0.0000000000000000e+00 0.0000000000000000e+00  0.0000000000000000e+00 0.0000000000000000e+00 0.0000000000000000e+00  5.5178971944797872e-02 -5.6124775076470415e-02 0.0000000000000000e+00  1.2431027822586065e-01 -5.6769074130684105e-02 0.0000000000000000e+00  1.9438660082762468e-01 -5.6784471996449287e-02 0.0000000000000000e+00  2.6436095263330300e-01 -5.6235566731544812e-02 0.0000000000000000e+00  3.3328483504617162e-01 -5.4519910633742286e-02 0.0000000000000000e+00  3.9940671251835724e-01 -5.0807055590291646e-02 0.0000000000000000e+00  4.5987346461691464e-01 -4.4109775215189863e-02 0.0000000000000000e+00  5.1024030326953895e-01 -3.3722293092849978e-02 0.0000000000000000e+00  5.4390275450463010e-01 -2.0398313119367115e-02 0.0000000000000000e+00  5.4070274823801123e-01 -6.8156769577885400e-03 0.0000000000000000e+00  0.0000000000000000e+00 0.0000000000000000e+00 0.0000000000000000e+00  5.5423308276712567e-02 -1.2613674130990621e-01 0.0000000000000000e+00  1.2780562676533547e-01 -1.2965181468667905e-01 0.0000000000000000e+00  2.0194598089863949e-01 -1.3025982734656497e-01 0.0000000000000000e+00  2.7684929680025355e-01 -1.2964517790597208e-01 0.0000000000000000e+00  3.5181933500632223e-01 -1.2664629014500683e-01 0.0000000000000000e+00  4.2531924348532846e-01 -1.1944600830832992e-01 0.0000000000000000e+00  4.9445208831949206e-01 -1.0573015731971454e-01 0.0000000000000000e+00  5.5456459674024139e-01 -8.2622418138155421e-02 0.0000000000000000e+00  5.9603329339228783e-01 -4.9844834051803150e-02 0.0000000000000000e+00  6.1231906081866538e-01 -1.7965952864565659e-02 0.0000000000000000e+00  0.0000000000000000e+00 0.0000000000000000e+00 0.0000000000000000e+00  5.4754557587926786e-02 -1.9630733645143678e-01 0.0000000000000000e+00  1.2700409807097224e-01 -2.0347550342866230e-01 0.0000000000000000e+00  2.0190515854611144e-01 -2.0554145498459644e-01 0.0000000000000000e+00  2.7901712128776440e-01 -2.0618466381353917e-01 0.0000000000000000e+00  3.5821314739179344e-01 -2.0366427040128021e-01 0.0000000000000000e+00  4.3847133202192612e-01 -1.9508673802624921e-01 0.0000000000000000e+00  5.1708568355171769e-01 -1.7658446379054199e-01 0.0000000000000000e+00  5.8854876388476285e-01 -1.4354040180848224e-01 0.0000000000000000e+00  6.5043980782927302e-01 -9.1184545564368738e-02 0.0000000000000000e+00  6.7265966764739438e-01 -3.4286076813276209e-02 0.0000000000000000e+00  0.0000000000000000e+00 0.0000000000000000e+00 0.0000000000000000e+00  5.3340153597744557e-02 -2.6544524605999975e-01 0.0000000000000000e+00  1.2439377441414325e-01 -2.7695843944479986e-01 0.0000000000000000e+00  1.9926267017372526e-01 -2.8182933739391702e-01 0.0000000000000000e+00  2.7830289747633175e-01 -2.8574354298173016e-01 0.0000000000000000e+00  3.6239681678067842e-01 -2.8652732391817798e-01 0.0000000000000000e+00  4.5150887968753534e-01 -2.8017796581118948e-01 0.0000000000000000e+00  5.4188606113426629e-01 -2.6074502769752972e-01 0.0000000000000000e+00  6.1998203998398593e-01 -2.2144931247926872e-01 0.0000000000000000e+00  6.5976939652598443e-01 -1.5782113641584139e-01 0.0000000000000000e+00  7.8773551497231309e-01 -6.4330221822672354e-02 0.0000000000000000e+00  0.0000000000000000e+00 0.0000000000000000e+00 0.0000000000000000e+00  5.0692066348382636e-02 -3.3224438769956072e-01 0.0000000000000000e+00  1.1903490557394665e-01 -3.4896300274805209e-01 0.0000000000000000e+00  1.9254430438053205e-01 -3.5828047876669394e-01 0.0000000000000000e+00  2.7250968819589122e-01 -3.6801249085414212e-01 0.0000000000000000e+00  3.6121841766630641e-01 -3.7581597020680424e-01 0.0000000000000000e+00  4.6093039800432617e-01 -3.7673037936819925e-01 0.0000000000000000e+00  5.6975857684768261e-01 -3.6116157038489388e-01 0.0000000000000000e+00  6.6223269986889977e-01 -3.1282962505570749e-01 0.0000000000000000e+00  6.3048235006691955e-01 -2.0965720001234239e-01 0.0000000000000000e+00  0.0000000000000000e+00 0.0000000000000000e+00 0.0000000000000000e+00  0.0000000000000000e+00 0.0000000000000000e+00 0.0000000000000000e+00  4.6215178629668216e-02 -3.9471431400568541e-01 0.0000000000000000e+00  1.0963351075801847e-01 -4.1763804132078214e-01 0.0000000000000000e+00  1.7972498226339959e-01 -4.3345292035294131e-01 0.0000000000000000e+00  2.5859735610683349e-01 -4.5190615570443576e-01 0.0000000000000000e+00  3.5003862002843372e-01 -4.7108607792969687e-01 0.0000000000000000e+00  4.5994372823154800e-01 -4.8567223772361895e-01 0.0000000000000000e+00  5.8780134656242777e-01 -4.8453669882867545e-01 0.0000000000000000e+00  7.0112361009021318e-01 -4.4891671381344089e-01 0.0000000000000000e+00  6.5708690072571463e-01 -2.9480015096030243e-01 0.0000000000000000e+00  0.0000000000000000e+00 0.0000000000000000e+00 0.0000000000000000e+00  0.0000000000000000e+00 0.0000000000000000e+00 0.0000000000000000e+00  3.8988482558958565e-02 -4.5033649542856058e-01 0.0000000000000000e+00  9.3665330893002066e-02 -4.8103628535862275e-01 0.0000000000000000e+00  1.5629828263705281e-01 -5.0710907333055633e-01 0.0000000000000000e+00  2.3005479570669898e-01 -5.4100893272135309e-01 0.0000000000000000e+00  3.1596593224002634e-01 -5.8278331185337817e-01 0.0000000000000000e+00  4.2240720708836033e-01 -6.3880146828834772e-01 0.0000000000000000e+00  5.6283305699488850e-01 -7.0560289012412480e-01 0.0000000000000000e+00  6.8371434473031412e-01 -7.3036668266328719e-01 0.0000000000000000e+00  6.0842211583193739e-01 -5.9404720751171447e-01 0.0000000000000000e+00  0.0000000000000000e+00 0.0000000000000000e+00 0.0000000000000000e+00  0.0000000000000000e+00 0.0000000000000000e+00 0.0000000000000000e+00  2.9362719351911704e-02 -4.9244614886568705e-01 0.0000000000000000e+00  7.2305374207629933e-02 -5.2980122399679341e-01 0.0000000000000000e+00  1.2997161245051894e-01 -5.6021479025738252e-01 0.0000000000000000e+00  2.0779777837445507e-01 -5.7651352110818754e-01 0.0000000000000000e+00  2.8406721094338300e-01 -5.6787036679806646e-01 0.0000000000000000e+00  3.9615360054369597e-01 -5.7478298397103667e-01 0.0000000000000000e+00  5.8094906929726775e-01 -5.1172188519604955e-01 0.0000000000000000e+00  7.2944699064333995e-01 -1.8501165391090299e-01 0.0000000000000000e+00  1.5029615418600706e-01 4.6519979594368510e-01 0.0000000000000000e+00  0.0000000000000000e+00 0.0000000000000000e+00 0.0000000000000000e+00  0.0000000000000000e+00 0.0000000000000000e+00 0.0000000000000000e+00  1.5692247427572806e-02 -5.2492052422841384e-01 0.0000000000000000e+00  3.4621130307703120e-02 -5.7794795136256316e-01 0.0000000000000000e+00  6.5002070877389101e-02 -6.4493610971658366e-01 0.0000000000000000e+00  1.1215360485470263e-01 -7.6454110742807091e-01 0.0000000000000000e+00  1.6854355769938753e-01 -9.5506568585561036e-01 0.0000000000000000e+00  1.7606290087363530e-01 -1.2047687208649556e+00 0.0000000000000000e+00  2.0506518959881501e-01 -1.6225927163842597e+00 0.0000000000000000e+00  3.0003758900663685e-01 -2.3447439616089287e+00 0.0000000000000000e+00  9.4465749396732923e-01 -2.9799521349744564e+00 0.0000000000000000e+00  0.0000000000000000e+00 0.0000000000000000e+00 0.0000000000000000e+00  0.0000000000000000e+00 0.0000000000000000e+00 0.0000000000000000e+00  4.4349677759254582e-03 -5.0073847659919291e-01 0.0000000000000000e+00  1.1997896435005777e-02 -5.6699351955919997e-01 0.0000000000000000e+00  2.4566814635118853e-02 -6.2625889926364620e-01 0.0000000000000000e+00  4.5275638061709748e-02 -7.2137384553988482e-01 0.0000000000000000e+00  0.0000000000000000e+00 0.0000000000000000e+00 0.0000000000000000e+00  0.0000000000000000e+00 0.0000000000000000e+00 0.0000000000000000e+00  0.0000000000000000e+00 0.0000000000000000e+00 0.0000000000000000e+00  0.0000000000000000e+00 0.0000000000000000e+00 0.0000000000000000e+00  0.0000000000000000e+00 0.0000000000000000e+00 0.0000000000000000e+00  0.0000000000000000e+00 0.0000000000000000e+00 0.0000000000000000e+00  </DataArray> 
</PointData> 
</Piece>
</UnstructuredGrid>
</VTKFile>