<?xml version="1.0"?>
<VTKFile type="UnstructuredGrid"  version="0.1"  >
<UnstructuredGrid>
<Piece  NumberOfPoints="121" NumberOfCells="200">
<Points>
<DataArray  type="Float64"  NumberOfComponents="3"  format="ascii">0 0 0  0.1 0 0  0.2 0 0  0.3 0 0  0.4 0 0  0.5 0 0  0.6 0 0  0.7 0 0  0.8 0 0  0.9 0 0  1 0 0  0 0.1 0  0.1 0.1 0  0.2 0.1 0  0.3 0.1 0  0.4 0.1 0  0.5 0.1 0  0.6 0.1 0  0.7 0.1 0  0.8 0.1 0  0.9 0.1 0  1 0.1 0  0 0.2 0  0.1 0.2 0  0.2 0.2 0  0.3 0.2 0  0.4 0.2 0  0.5 0.2 0  0.6 0.2 0  0.7 0.2 0  0.8 0.2 0  0.9 0.2 0  1 0.2 0  0 0.3 0  0.1 0.3 0  0.2 0.3 0  0.3 0.3 0  0.4 0.3 0  0.5 0.3 0  0.6 0.3 0  0.7 0.3 0  0.8 0.3 0  0.9 0.3 0  1 0.3 0  0 0.4 0  0.1 0.4 0  0.2 0.4 0  0.3 0.4 0  0.4 0.4 0  0.5 0.4 0  0.6 0.4 0  0.7 0.4 0  0.8 0.4 0  0.9 0.4 0  1 0.4 0  0 0.5 0  0.1 0.5 0  0.2 0.5 0  0.3 0.5 0  0.4 0.5 0  0.5 0.5 0  0.6 0.5 0  0.7 0.5 0  0.8 0.5 0  0.9 0.5 0  1 0.5 0  0 0.6 0  0.1 0.6 0  0.2 0.6 0  0.3 0.6 0  0.4 0.6 0  0.5 0.6 0  0.6 0.6 0  0.7 0.6 0  0.8 0.6 0  0.9 0.6 0  1 0.6 0  0 0.7 0  0.1 0.7 0  0.2 0.7 0  0.3 0.7 0  0.4 0.7 0  0.5 0.7 0  0.6 0.7 0  0.7 0.7 0  0.8 0.7 0  0.9 0.7 0  1 0.7 0  0 0.8 0  0.1 0.8 0  0.2 0.8 0  0.3 0.8 0  0.4 0.8 0  0.5 0.8 0  0.6 0.8 0  0.7 0.8 0  0.8 0.8 0  0.9 0.8 0  1 0.8 0  0 0.9 0  0.1 0.9 0  0.2 0.9 0  0.3 0.9 0  0.4 0.9 0  0.5 0.9 0  0.6 0.9 0  0.7 0.9 0  0.8 0.9 0  0.9 0.9 0  1 0.9 0  0 1 0  0.1 1 0  0.2 1 0  0.3 1 0  0.4 1 0  0.5 1 0  0.6 1 0  0.7 1 0  0.8 1 0  0.9 1 0  1 1 0  </DataArray>
</Points>
<Cells>
<DataArray  type="UInt32"  Name="connectivity"  format="ascii">0 1 12  0 11 12  1 2 13  1 12 13  2 3 14  2 13 14  3 4 15  3 14 15  4 5 16  4 15 16  5 6 17  5 16 17  6 7 18  6 17 18  7 8 19  7 18 19  8 9 20  8 19 20  9 10 21  9 20 21  11 12 23  11 22 23  12 13 24  12 23 24  13 14 25  13 24 25  14 15 26  14 25 26  15 16 27  15 26 27  16 17 28  16 27 28  17 18 29  17 28 29  18 19 30  18 29 30  19 20 31  19 30 31  20 21 32  20 31 32  22 23 34  22 33 34  23 24 35  23 34 35  24 25 36  24 35 36  25 26 37  25 36 37  26 27 38  26 37 38  27 28 39  27 38 39  28 29 40  28 39 40  29 30 41  29 40 41  30 31 42  30 41 42  31 32 43  31 42 43  33 34 45  33 44 45  34 35 46  34 45 46  35 36 47  35 46 47  36 37 48  36 47 48  37 38 49  37 48 49  38 39 50  38 49 50  39 40 51  39 50 51  40 41 52  40 51 52  41 42 53  41 52 53  42 43 54  42 53 54  44 45 56  44 55 56  45 46 57  45 56 57  46 47 58  46 57 58  47 48 59  47 58 59  48 49 60  48 59 60  49 50 61  49 60 61  50 51 62  50 61 62  51 52 63  51 62 63  52 53 64  52 63 64  53 54 65  53 64 65  55 56 67  55 66 67  56 57 68  56 67 68  57 58 69  57 68 69  58 59 70  58 69 70  59 60 71  59 70 71  60 61 72  60 71 72  61 62 73  61 72 73  62 63 74  62 73 74  63 64 75  63 74 75  64 65 76  64 75 76  66 67 78  66 77 78  67 68 79  67 78 79  68 69 80  68 79 80  69 70 81  69 80 81  70 71 82  70 81 82  71 72 83  71 82 83  72 73 84  72 83 84  73 74 85  73 84 85  74 75 86  74 85 86  75 76 87  75 86 87  77 78 89  77 88 89  78 79 90  78 89 90  79 80 91  79 90 91  80 81 92  80 91 92  81 82 93  81 92 93  82 83 94  82 93 94  83 84 95  83 94 95  84 85 96  84 95 96  85 86 97  85 96 97  86 87 98  86 97 98  88 89 100  88 99 100  89 90 101  89 100 101  90 91 102  90 101 102  91 92 103  91 102 103  92 93 104  92 103 104  93 94 105  93 104 105  94 95 106  94 105 106  95 96 107  95 106 107  96 97 108  96 107 108  97 98 109  97 108 109  99 100 111  99 110 111  100 101 112  100 111 112  101 102 113  101 112 113  102 103 114  102 113 114  103 104 115  103 114 115  104 105 116  104 115 116  105 106 117  105 116 117  106 107 118  106 117 118  107 108 119  107 118 119  108 109 120  108 119 120  </DataArray>
<DataArray  type="UInt32"  Name="offsets"  format="ascii">3 6 9 12 15 18 21 24 27 30 33 36 39 42 45 48 51 54 57 60 63 66 69 72 75 78 81 84 87 90 93 96 99 102 105 108 111 114 117 120 123 126 129 132 135 138 141 144 147 150 153 156 159 162 165 168 171 174 177 180 183 186 189 192 195 198 201 204 207 210 213 216 219 222 225 228 231 234 237 240 243 246 249 252 255 258 261 264 267 270 273 276 279 282 285 288 291 294 297 300 303 306 309 312 315 318 321 324 327 330 333 336 339 342 345 348 351 354 357 360 363 366 369 372 375 378 381 384 387 390 393 396 399 402 405 408 411 414 417 420 423 426 429 432 435 438 441 444 447 450 453 456 459 462 465 468 471 474 477 480 483 486 489 492 495 498 501 504 507 510 513 516 519 522 525 528 531 534 537 540 543 546 549 552 555 558 561 564 567 570 573 576 579 582 585 588 591 594 597 600 </DataArray>
<DataArray  type="UInt8"  Name="types"  format="ascii">5 5 5 5 5 5 5 5 5 5 5 5 5 5 5 5 5 5 5 5 5 5 5 5 5 5 5 5 5 5 5 5 5 5 5 5 5 5 5 5 5 5 5 5 5 5 5 5 5 5 5 5 5 5 5 5 5 5 5 5 5 5 5 5 5 5 5 5 5 5 5 5 5 5 5 5 5 5 5 5 5 5 5 5 5 5 5 5 5 5 5 5 5 5 5 5 5 5 5 5 5 5 5 5 5 5 5 5 5 5 5 5 5 5 5 5 5 5 5 5 5 5 5 5 5 5 5 5 5 5 5 5 5 5 5 5 5 5 5 5 5 5 5 5 5 5 5 5 5 5 5 5 5 5 5 5 5 5 5 5 5 5 5 5 5 5 5 5 5 5 5 5 5 5 5 5 5 5 5 5 5 5 5 5 5 5 5 5 5 5 5 5 5 5 5 5 5 5 5 5 </DataArray>
</Cells>
<PointData  Vectors="f_22"> 
<DataArray  type="Float64"  Name="f_22"  NumberOfComponents="3" format="ascii">0.0000000000000000e+00 0.0000000000000000e+00 0.0000000000000000e+00  0.0000000000000000e+00 0.0000000000000000e+00 0.0000000000000000e+00  0.0000000000000000e+00 0.0000000000000000e+00 0.0000000000000000e+00  0.0000000000000000e+00 0.0000000000000000e+00 0.0000000000000000e+00  0.0000000000000000e+00 0.0000000000000000e+00 0.0000000000000000e+00  0.0000000000000000e+00 0.0000000000000000e+00 0.0000000000000000e+00  0.0000000000000000e+00 0.0000000000000000e+00 0.0000000000000000e+00  0.0000000000000000e+00 0.0000000000000000e+00 0.0000000000000000e+00  0.0000000000000000e+00 0.0000000000000000e+00 0.0000000000000000e+00  0.0000000000000000e+00 0.0000000000000000e+00 0.0000000000000000e+00  0.0000000000000000e+00 0.0000000000000000e+00 0.0000000000000000e+00  0.0000000000000000e+00 0.0000000000000000e+00 0.0000000000000000e+00  -2.2539438665815911e-02 2.1726221973818276e-02 0.0000000000000000e+00  -4.7111913740851372e-02 1.4597546845597090e-02 0.0000000000000000e+00  -5.6651676483544695e-02 6.1854491501289518e-03 0.0000000000000000e+00  -5.5145725651071453e-02 1.4614709119210242e-03 0.0000000000000000e+00  -4.7813243842016948e-02 -1.3327636060199977e-03 0.0000000000000000e+00  -3.6120342406527624e-02 -4.6945138696553078e-03 0.0000000000000000e+00  -1.7514224937870831e-02 -1.0960120751622658e-02 0.0000000000000000e+00  1.3309785874638517e-02 -2.2296238585156246e-02 0.0000000000000000e+00  6.9335349515373124e-02 -3.9616758667022148e-02 0.0000000000000000e+00  1.2862419969194014e-01 -5.8596593853848133e-02 0.0000000000000000e+00  0.0000000000000000e+00 0.0000000000000000e+00 0.0000000000000000e+00  -1.9942865202789806e-02 4.9299248530213620e-02 0.0000000000000000e+00  -3.7130427853922114e-02 2.7401646856347078e-02 0.0000000000000000e+00  -3.6154522337870199e-02 3.2981289012818057e-03 0.0000000000000000e+00  -2.2806939329570824e-02 -1.0214570714100632e-02 0.0000000000000000e+00  -3.8384297658397119e-03 -1.7311641527014452e-02 0.0000000000000000e+00  1.7580881248224125e-02 -2.4588796397329294e-02 0.0000000000000000e+00  4.2432463393416872e-02 -3.8557932276255126e-02 0.0000000000000000e+00  7.4856138610725487e-02 -6.4575645668097828e-02 0.0000000000000000e+00  1.2586470673687042e-01 -1.0605696524589350e-01 0.0000000000000000e+00  1.7781769182220089e-01 -1.4881314357253336e-01 0.0000000000000000e+00  0.0000000000000000e+00 0.0000000000000000e+00 0.0000000000000000e+00  -1.7259499427344650e-02 7.1495168477232959e-02 0.0000000000000000e+00  -2.9948980268446827e-02 3.2666991610685016e-02 0.0000000000000000e+00  -2.4994534989741572e-02 -7.6232943428066026e-03 0.0000000000000000e+00  -8.9403530495707397e-03 -2.8959985650783719e-02 0.0000000000000000e+00  1.0022998724667236e-02 -3.7665339693584203e-02 0.0000000000000000e+00  2.6562386822404253e-02 -4.4272737849232371e-02 0.0000000000000000e+00  3.9148120564651667e-02 -5.9667828255752980e-02 0.0000000000000000e+00  5.4134626471046061e-02 -9.0360180093050510e-02 0.0000000000000000e+00  6.3377435102716248e-02 -1.4216233204042714e-01 0.0000000000000000e+00  7.2209917819392552e-02 -2.0865362723651271e-01 0.0000000000000000e+00  0.0000000000000000e+00 0.0000000000000000e+00 0.0000000000000000e+00  -1.6217408663495501e-02 9.1167097780134349e-02 0.0000000000000000e+00  -2.6981734960173812e-02 3.5611203460462024e-02 0.0000000000000000e+00  -2.0608076823786719e-02 -1.9782034550212838e-02 0.0000000000000000e+00  -4.5900346152799344e-03 -4.6819517633403647e-02 0.0000000000000000e+00  9.5830379667300146e-03 -5.2313225966517676e-02 0.0000000000000000e+00  1.4681818654198882e-02 -5.0919560735677299e-02 0.0000000000000000e+00  3.8946384725978491e-03 -5.9724642769332724e-02 0.0000000000000000e+00  4.6489522519587529e-03 -8.5843696866399880e-02 0.0000000000000000e+00  -8.0869302882366115e-02 -1.2034443733098565e-01 0.0000000000000000e+00  -1.2734526088824050e-01 -1.7097318357522537e-01 0.0000000000000000e+00  0.0000000000000000e+00 0.0000000000000000e+00 0.0000000000000000e+00  -1.5096331011754921e-02 1.0883088949308689e-01 0.0000000000000000e+00  -2.4477574750569407e-02 3.6200959036197938e-02 0.0000000000000000e+00  -1.7491475059064957e-02 -3.3531317883514301e-02 0.0000000000000000e+00  -3.2596881241655847e-03 -6.2469078088535496e-02 0.0000000000000000e+00  -1.2111166252851577e-04 -5.5955144143005772e-02 0.0000000000000000e+00  -1.2016678580700655e-02 -3.6427475660011199e-02 0.0000000000000000e+00  -6.2112946870499265e-02 -3.3732173514166464e-02 0.0000000000000000e+00  -5.7775137766811709e-02 -5.1596438542214837e-02 0.0000000000000000e+00  -2.7238202533301459e-01 -2.8705007963183156e-02 0.0000000000000000e+00  0.0000000000000000e+00 0.0000000000000000e+00 0.0000000000000000e+00  0.0000000000000000e+00 0.0000000000000000e+00 0.0000000000000000e+00  -1.3753330704742592e-02 1.2522386015914391e-01 0.0000000000000000e+00  -2.2006078039394149e-02 3.7433317037658273e-02 0.0000000000000000e+00  -1.6497684998347022e-02 -4.4221324410055655e-02 0.0000000000000000e+00  -9.4470108439922238e-03 -6.8891457669204306e-02 0.0000000000000000e+00  -2.8155105992307469e-02 -3.8004900111631289e-02 0.0000000000000000e+00  -6.0214465008214341e-02 9.1379660260947782e-03 0.0000000000000000e+00  -1.7140223114488451e-01 2.0328307638545873e-02 0.0000000000000000e+00  -1.3386241862890236e-01 2.2063473026580349e-02 0.0000000000000000e+00  -4.8788047714394034e-01 6.3363500097338959e-02 0.0000000000000000e+00  0.0000000000000000e+00 0.0000000000000000e+00 0.0000000000000000e+00  0.0000000000000000e+00 0.0000000000000000e+00 0.0000000000000000e+00  -1.1455492484337408e-02 1.3917841786656390e-01 0.0000000000000000e+00  -1.9289995460391278e-02 3.8490332524773116e-02 0.0000000000000000e+00  -1.9192667809155819e-02 -4.9829522576460339e-02 0.0000000000000000e+00  -2.7401006057590382e-02 -5.8850074134396316e-02 0.0000000000000000e+00  -7.5865633649357306e-02 1.1966014595907305e-02 0.0000000000000000e+00  -1.2822243646706699e-01 8.8894470506218445e-02 0.0000000000000000e+00  -3.1787186383468380e-01 1.0513752607979875e-01 0.0000000000000000e+00  -2.1672820117899369e-01 1.3264657905727650e-01 0.0000000000000000e+00  -7.1691398289973352e-01 1.2083858268439945e-01 0.0000000000000000e+00  0.0000000000000000e+00 0.0000000000000000e+00 0.0000000000000000e+00  0.0000000000000000e+00 0.0000000000000000e+00 0.0000000000000000e+00  -7.8992523629867542e-03 1.5029523471703610e-01 0.0000000000000000e+00  -1.4455250790373721e-02 4.2702805214533623e-02 0.0000000000000000e+00  -2.2138132542778313e-02 -4.3949521517863063e-02 0.0000000000000000e+00  -5.1891415571920972e-02 -2.6292655787198072e-02 0.0000000000000000e+00  -1.2516754772343638e-01 9.3251734945693388e-02 0.0000000000000000e+00  -2.0278571219147132e-01 1.9768617076788311e-01 0.0000000000000000e+00  -4.5464058989357753e-01 2.4359044499770047e-01 0.0000000000000000e+00  -3.2293088420924615e-01 2.5966949926383931e-01 0.0000000000000000e+00  -9.3297743570361191e-01 1.3393386214738667e-01 0.0000000000000000e+00  0.0000000000000000e+00 0.0000000000000000e+00 0.0000000000000000e+00  0.0000000000000000e+00 0.0000000000000000e+00 0.0000000000000000e+00  -2.0768485654210152e-03 1.5488282633879705e-01 0.0000000000000000e+00  -2.3130773966099976e-03 4.7356909141774282e-02 0.0000000000000000e+00  -9.3539598451842509e-03 -2.2783548673987342e-02 0.0000000000000000e+00  -4.5990821085484114e-02 4.0762979777344506e-02 0.0000000000000000e+00  -1.2597455833051624e-01 2.0707924003062672e-01 0.0000000000000000e+00  -2.1609456328739798e-01 3.1258675146251602e-01 0.0000000000000000e+00  -4.5124327623869614e-01 3.8030270436591901e-01 0.0000000000000000e+00  -4.9613947026900279e-01 3.4707228617413760e-01 0.0000000000000000e+00  -1.0557990217328359e+00 1.1172018471938676e-01 0.0000000000000000e+00  0.0000000000000000e+00 0.0000000000000000e+00 0.0000000000000000e+00  0.0000000000000000e+00 0.0000000000000000e+00 0.0000000000000000e+00  3.8991456062120017e-03 1.4845739209514411e-01 0.0000000000000000e+00  1.0243295104122490e-02 4.3877752424439212e-02 0.0000000000000000e+00  1.1580297001374387e-02 -2.2409884415845037e-02 0.0000000000000000e+00  -8.7734802479771112e-03 7.7048974501745734e-02 0.0000000000000000e+00  0.0000000000000000e+00 0.0000000000000000e+00 0.0000000000000000e+00  0.0000000000000000e+00 0.0000000000000000e+00 0.0000000000000000e+00  0.0000000000000000e+00 0.0000000000000000e+00 0.0000000000000000e+00  0.0000000000000000e+00 0.0000000000000000e+00 0.0000000000000000e+00  0.0000000000000000e+00 0.0000000000000000e+00 0.0000000000000000e+00  0.0000000000000000e+00 0.0000000000000000e+00 0.0000000000000000e+00  </DataArray> 
</PointData> 
</Piece>
</UnstructuredGrid>
</VTKFile>