<?xml version="1.0"?>
<VTKFile type="UnstructuredGrid"  version="0.1"  >
<UnstructuredGrid>
<Piece  NumberOfPoints="121" NumberOfCells="200">
<Points>
<DataArray  type="Float64"  NumberOfComponents="3"  format="ascii">0 0 0  0.1 0 0  0.2 0 0  0.3 0 0  0.4 0 0  0.5 0 0  0.6 0 0  0.7 0 0  0.8 0 0  0.9 0 0  1 0 0  0 0.1 0  0.1 0.1 0  0.2 0.1 0  0.3 0.1 0  0.4 0.1 0  0.5 0.1 0  0.6 0.1 0  0.7 0.1 0  0.8 0.1 0  0.9 0.1 0  1 0.1 0  0 0.2 0  0.1 0.2 0  0.2 0.2 0  0.3 0.2 0  0.4 0.2 0  0.5 0.2 0  0.6 0.2 0  0.7 0.2 0  0.8 0.2 0  0.9 0.2 0  1 0.2 0  0 0.3 0  0.1 0.3 0  0.2 0.3 0  0.3 0.3 0  0.4 0.3 0  0.5 0.3 0  0.6 0.3 0  0.7 0.3 0  0.8 0.3 0  0.9 0.3 0  1 0.3 0  0 0.4 0  0.1 0.4 0  0.2 0.4 0  0.3 0.4 0  0.4 0.4 0  0.5 0.4 0  0.6 0.4 0  0.7 0.4 0  0.8 0.4 0  0.9 0.4 0  1 0.4 0  0 0.5 0  0.1 0.5 0  0.2 0.5 0  0.3 0.5 0  0.4 0.5 0  0.5 0.5 0  0.6 0.5 0  0.7 0.5 0  0.8 0.5 0  0.9 0.5 0  1 0.5 0  0 0.6 0  0.1 0.6 0  0.2 0.6 0  0.3 0.6 0  0.4 0.6 0  0.5 0.6 0  0.6 0.6 0  0.7 0.6 0  0.8 0.6 0  0.9 0.6 0  1 0.6 0  0 0.7 0  0.1 0.7 0  0.2 0.7 0  0.3 0.7 0  0.4 0.7 0  0.5 0.7 0  0.6 0.7 0  0.7 0.7 0  0.8 0.7 0  0.9 0.7 0  1 0.7 0  0 0.8 0  0.1 0.8 0  0.2 0.8 0  0.3 0.8 0  0.4 0.8 0  0.5 0.8 0  0.6 0.8 0  0.7 0.8 0  0.8 0.8 0  0.9 0.8 0  1 0.8 0  0 0.9 0  0.1 0.9 0  0.2 0.9 0  0.3 0.9 0  0.4 0.9 0  0.5 0.9 0  0.6 0.9 0  0.7 0.9 0  0.8 0.9 0  0.9 0.9 0  1 0.9 0  0 1 0  0.1 1 0  0.2 1 0  0.3 1 0  0.4 1 0  0.5 1 0  0.6 1 0  0.7 1 0  0.8 1 0  0.9 1 0  1 1 0  </DataArray>
</Points>
<Cells>
<DataArray  type="UInt32"  Name="connectivity"  format="ascii">0 1 12  0 11 12  1 2 13  1 12 13  2 3 14  2 13 14  3 4 15  3 14 15  4 5 16  4 15 16  5 6 17  5 16 17  6 7 18  6 17 18  7 8 19  7 18 19  8 9 20  8 19 20  9 10 21  9 20 21  11 12 23  11 22 23  12 13 24  12 23 24  13 14 25  13 24 25  14 15 26  14 25 26  15 16 27  15 26 27  16 17 28  16 27 28  17 18 29  17 28 29  18 19 30  18 29 30  19 20 31  19 30 31  20 21 32  20 31 32  22 23 34  22 33 34  23 24 35  23 34 35  24 25 36  24 35 36  25 26 37  25 36 37  26 27 38  26 37 38  27 28 39  27 38 39  28 29 40  28 39 40  29 30 41  29 40 41  30 31 42  30 41 42  31 32 43  31 42 43  33 34 45  33 44 45  34 35 46  34 45 46  35 36 47  35 46 47  36 37 48  36 47 48  37 38 49  37 48 49  38 39 50  38 49 50  39 40 51  39 50 51  40 41 52  40 51 52  41 42 53  41 52 53  42 43 54  42 53 54  44 45 56  44 55 56  45 46 57  45 56 57  46 47 58  46 57 58  47 48 59  47 58 59  48 49 60  48 59 60  49 50 61  49 60 61  50 51 62  50 61 62  51 52 63  51 62 63  52 53 64  52 63 64  53 54 65  53 64 65  55 56 67  55 66 67  56 57 68  56 67 68  57 58 69  57 68 69  58 59 70  58 69 70  59 60 71  59 70 71  60 61 72  60 71 72  61 62 73  61 72 73  62 63 74  62 73 74  63 64 75  63 74 75  64 65 76  64 75 76  66 67 78  66 77 78  67 68 79  67 78 79  68 69 80  68 79 80  69 70 81  69 80 81  70 71 82  70 81 82  71 72 83  71 82 83  72 73 84  72 83 84  73 74 85  73 84 85  74 75 86  74 85 86  75 76 87  75 86 87  77 78 89  77 88 89  78 79 90  78 89 90  79 80 91  79 90 91  80 81 92  80 91 92  81 82 93  81 92 93  82 83 94  82 93 94  83 84 95  83 94 95  84 85 96  84 95 96  85 86 97  85 96 97  86 87 98  86 97 98  88 89 100  88 99 100  89 90 101  89 100 101  90 91 102  90 101 102  91 92 103  91 102 103  92 93 104  92 103 104  93 94 105  93 104 105  94 95 106  94 105 106  95 96 107  95 106 107  96 97 108  96 107 108  97 98 109  97 108 109  99 100 111  99 110 111  100 101 112  100 111 112  101 102 113  101 112 113  102 103 114  102 113 114  103 104 115  103 114 115  104 105 116  104 115 116  105 106 117  105 116 117  106 107 118  106 117 118  107 108 119  107 118 119  108 109 120  108 119 120  </DataArray>
<DataArray  type="UInt32"  Name="offsets"  format="ascii">3 6 9 12 15 18 21 24 27 30 33 36 39 42 45 48 51 54 57 60 63 66 69 72 75 78 81 84 87 90 93 96 99 102 105 108 111 114 117 120 123 126 129 132 135 138 141 144 147 150 153 156 159 162 165 168 171 174 177 180 183 186 189 192 195 198 201 204 207 210 213 216 219 222 225 228 231 234 237 240 243 246 249 252 255 258 261 264 267 270 273 276 279 282 285 288 291 294 297 300 303 306 309 312 315 318 321 324 327 330 333 336 339 342 345 348 351 354 357 360 363 366 369 372 375 378 381 384 387 390 393 396 399 402 405 408 411 414 417 420 423 426 429 432 435 438 441 444 447 450 453 456 459 462 465 468 471 474 477 480 483 486 489 492 495 498 501 504 507 510 513 516 519 522 525 528 531 534 537 540 543 546 549 552 555 558 561 564 567 570 573 576 579 582 585 588 591 594 597 600 </DataArray>
<DataArray  type="UInt8"  Name="types"  format="ascii">5 5 5 5 5 5 5 5 5 5 5 5 5 5 5 5 5 5 5 5 5 5 5 5 5 5 5 5 5 5 5 5 5 5 5 5 5 5 5 5 5 5 5 5 5 5 5 5 5 5 5 5 5 5 5 5 5 5 5 5 5 5 5 5 5 5 5 5 5 5 5 5 5 5 5 5 5 5 5 5 5 5 5 5 5 5 5 5 5 5 5 5 5 5 5 5 5 5 5 5 5 5 5 5 5 5 5 5 5 5 5 5 5 5 5 5 5 5 5 5 5 5 5 5 5 5 5 5 5 5 5 5 5 5 5 5 5 5 5 5 5 5 5 5 5 5 5 5 5 5 5 5 5 5 5 5 5 5 5 5 5 5 5 5 5 5 5 5 5 5 5 5 5 5 5 5 5 5 5 5 5 5 5 5 5 5 5 5 5 5 5 5 5 5 5 5 5 5 5 5 </DataArray>
</Cells>
<PointData  Vectors="f_22"> 
<DataArray  type="Float64"  Name="f_22"  NumberOfComponents="3" format="ascii">0.0000000000000000e+00 0.0000000000000000e+00 0.0000000000000000e+00  0.0000000000000000e+00 0.0000000000000000e+00 0.0000000000000000e+00  0.0000000000000000e+00 0.0000000000000000e+00 0.0000000000000000e+00  0.0000000000000000e+00 0.0000000000000000e+00 0.0000000000000000e+00  0.0000000000000000e+00 0.0000000000000000e+00 0.0000000000000000e+00  0.0000000000000000e+00 0.0000000000000000e+00 0.0000000000000000e+00  0.0000000000000000e+00 0.0000000000000000e+00 0.0000000000000000e+00  0.0000000000000000e+00 0.0000000000000000e+00 0.0000000000000000e+00  0.0000000000000000e+00 0.0000000000000000e+00 0.0000000000000000e+00  0.0000000000000000e+00 0.0000000000000000e+00 0.0000000000000000e+00  0.0000000000000000e+00 0.0000000000000000e+00 0.0000000000000000e+00  0.0000000000000000e+00 0.0000000000000000e+00 0.0000000000000000e+00  2.4038935797572717e-02 -2.4959265115528494e-02 0.0000000000000000e+00  7.4841123566091669e-02 -3.6192569374655301e-02 0.0000000000000000e+00  1.3506718199299753e-01 -3.8786347868571748e-02 0.0000000000000000e+00  1.9745740810168066e-01 -3.9557068776756660e-02 0.0000000000000000e+00  2.6078448141941296e-01 -4.0132576523268265e-02 0.0000000000000000e+00  3.2480006461598576e-01 -4.0510289128299619e-02 0.0000000000000000e+00  3.8898434434827517e-01 -4.0053022253578444e-02 0.0000000000000000e+00  4.5132377512683042e-01 -3.7594810137365160e-02 0.0000000000000000e+00  5.0738833259667915e-01 -3.2827514335467059e-02 0.0000000000000000e+00  5.4518144701960891e-01 -2.4678163303026010e-02 0.0000000000000000e+00  0.0000000000000000e+00 0.0000000000000000e+00 0.0000000000000000e+00  2.9846615071314316e-02 -7.2074965725137524e-02 0.0000000000000000e+00  8.9773943085402708e-02 -1.0034213677208534e-01 0.0000000000000000e+00  1.5989803498710778e-01 -1.0736554515795448e-01 0.0000000000000000e+00  2.3248576587356520e-01 -1.0930121676482146e-01 0.0000000000000000e+00  3.0625343279767103e-01 -1.1059897119810069e-01 0.0000000000000000e+00  3.8119736513547303e-01 -1.1185124081012179e-01 0.0000000000000000e+00  4.5747697608496424e-01 -1.1230667363005169e-01 0.0000000000000000e+00  5.3536299931732345e-01 -1.0959625290463339e-01 0.0000000000000000e+00  6.0879492687199999e-01 -9.9045629077805064e-02 0.0000000000000000e+00  6.6916896923527558e-01 -7.6599468561553516e-02 0.0000000000000000e+00  0.0000000000000000e+00 0.0000000000000000e+00 0.0000000000000000e+00  2.9782913899148528e-02 -1.2367064655183882e-01 0.0000000000000000e+00  9.0333086023262565e-02 -1.6960424568440008e-01 0.0000000000000000e+00  1.6106531224448872e-01 -1.8146052273895083e-01 0.0000000000000000e+00  2.3419035952200334e-01 -1.8542199506641249e-01 0.0000000000000000e+00  3.0857323697894112e-01 -1.8860550768439935e-01 0.0000000000000000e+00  3.8460508861173454e-01 -1.9199629678491947e-01 0.0000000000000000e+00  4.6328810614622357e-01 -1.9410402262409968e-01 0.0000000000000000e+00  5.4398988246202673e-01 -1.9053809685226789e-01 0.0000000000000000e+00  6.4053556190342931e-01 -1.7481786680727934e-01 0.0000000000000000e+00  7.1397780811869782e-01 -1.4829388712782340e-01 0.0000000000000000e+00  0.0000000000000000e+00 0.0000000000000000e+00 0.0000000000000000e+00  2.9754316708890338e-02 -1.7292819040139853e-01 0.0000000000000000e+00  8.9614714330291723e-02 -2.3444788148388745e-01 0.0000000000000000e+00  1.5968441419698140e-01 -2.4872214538567172e-01 0.0000000000000000e+00  2.3232610480238655e-01 -2.5195233395994643e-01 0.0000000000000000e+00  3.0594472766129160e-01 -2.5350633936667782e-01 0.0000000000000000e+00  3.8027662335219753e-01 -2.5621487704001944e-01 0.0000000000000000e+00  4.5619355275987034e-01 -2.6278864774837374e-01 0.0000000000000000e+00  5.2990620354284801e-01 -2.7228971686645964e-01 0.0000000000000000e+00  5.8958079819100795e-01 -2.7910415914062858e-01 0.0000000000000000e+00  8.0083753555550419e-01 -2.8985140481199467e-01 0.0000000000000000e+00  0.0000000000000000e+00 0.0000000000000000e+00 0.0000000000000000e+00  2.8757097496098241e-02 -2.2567907624844605e-01 0.0000000000000000e+00  8.6611878059894246e-02 -3.0816598127933986e-01 0.0000000000000000e+00  1.5555105911504744e-01 -3.3300038415280070e-01 0.0000000000000000e+00  2.2803089178767280e-01 -3.4375775117320234e-01 0.0000000000000000e+00  3.0049432886398453e-01 -3.5182124201430409e-01 0.0000000000000000e+00  3.7208146306151818e-01 -3.6292838687453860e-01 0.0000000000000000e+00  4.4532639226538812e-01 -3.7672806770497341e-01 0.0000000000000000e+00  5.1372653060910178e-01 -3.7839273731421308e-01 0.0000000000000000e+00  5.0143167181470050e-01 -3.2393405572297623e-01 0.0000000000000000e+00  0.0000000000000000e+00 0.0000000000000000e+00 0.0000000000000000e+00  0.0000000000000000e+00 0.0000000000000000e+00 0.0000000000000000e+00  2.8243466656958420e-02 -2.6881650654081696e-01 0.0000000000000000e+00  8.4212770600546327e-02 -3.5918090398233854e-01 0.0000000000000000e+00  1.5254054993004468e-01 -3.7754539270112925e-01 0.0000000000000000e+00  2.2644617540739895e-01 -3.7591070470637494e-01 0.0000000000000000e+00  3.0008993438971227e-01 -3.6667216957064647e-01 0.0000000000000000e+00  3.6612835043629577e-01 -3.5507509627691691e-01 0.0000000000000000e+00  4.2612833212975426e-01 -3.5551769526553773e-01 0.0000000000000000e+00  4.8729269980518236e-01 -3.8133088963571315e-01 0.0000000000000000e+00  4.8117719223449257e-01 -3.6069936536428082e-01 0.0000000000000000e+00  0.0000000000000000e+00 0.0000000000000000e+00 0.0000000000000000e+00  0.0000000000000000e+00 0.0000000000000000e+00 0.0000000000000000e+00  2.4068184815947899e-02 -3.1899447513603046e-01 0.0000000000000000e+00  6.9618426113129100e-02 -4.3816582843964680e-01 0.0000000000000000e+00  1.3124283570665290e-01 -4.9633761863122328e-01 0.0000000000000000e+00  2.1248185455034796e-01 -5.3812399181016313e-01 0.0000000000000000e+00  2.8934742485884374e-01 -5.4514411024891396e-01 0.0000000000000000e+00  3.3383210881513470e-01 -5.4688118100980765e-01 0.0000000000000000e+00  3.7626430227808433e-01 -5.9794521837254355e-01 0.0000000000000000e+00  4.4789474847988991e-01 -6.3768504492865719e-01 0.0000000000000000e+00  4.8165846845952737e-01 -5.5819965826879936e-01 0.0000000000000000e+00  0.0000000000000000e+00 0.0000000000000000e+00 0.0000000000000000e+00  0.0000000000000000e+00 0.0000000000000000e+00 0.0000000000000000e+00  1.9301682211648154e-02 -3.4646818215645553e-01 0.0000000000000000e+00  5.6366962304034492e-02 -4.6374948118008713e-01 0.0000000000000000e+00  1.1947169561706472e-01 -5.0519291303639347e-01 0.0000000000000000e+00  2.0669861412276189e-01 -4.9952625635372283e-01 0.0000000000000000e+00  2.6843687758038087e-01 -3.9206049050503805e-01 0.0000000000000000e+00  2.8562196961591357e-01 -3.0578322399819036e-01 0.0000000000000000e+00  2.9932862435125179e-01 -2.9430159081151275e-01 0.0000000000000000e+00  3.2105063482167095e-01 -3.4543483451506529e-01 0.0000000000000000e+00  3.4459161286514967e-01 -5.1297192272621450e-01 0.0000000000000000e+00  0.0000000000000000e+00 0.0000000000000000e+00 0.0000000000000000e+00  0.0000000000000000e+00 0.0000000000000000e+00 0.0000000000000000e+00  1.1624774781753361e-02 -3.7906026675392585e-01 0.0000000000000000e+00  3.1277683367143386e-02 -5.2271537421026626e-01 0.0000000000000000e+00  6.1940787222980340e-02 -6.3458811788392455e-01 0.0000000000000000e+00  1.0367948964761975e-01 -7.6060582920665953e-01 0.0000000000000000e+00  1.3947384253875272e-01 -7.2050097209022734e-01 0.0000000000000000e+00  9.6351968438062319e-02 -7.3289168716759245e-01 0.0000000000000000e+00  1.0150717836070701e-01 -8.8282528014764727e-01 0.0000000000000000e+00  1.1604200068992380e-01 -1.0423301175873085e+00 0.0000000000000000e+00  3.0024707112607762e-01 -1.0835937845703472e+00 0.0000000000000000e+00  0.0000000000000000e+00 0.0000000000000000e+00 0.0000000000000000e+00  0.0000000000000000e+00 0.0000000000000000e+00 0.0000000000000000e+00  6.8534648763031560e-03 -3.8157792248587324e-01 0.0000000000000000e+00  1.8039120542235165e-02 -5.1523888570561305e-01 0.0000000000000000e+00  3.5000840323877444e-02 -6.0965766420993328e-01 0.0000000000000000e+00  5.0533784318000131e-02 -6.6706315835109209e-01 0.0000000000000000e+00  0.0000000000000000e+00 0.0000000000000000e+00 0.0000000000000000e+00  0.0000000000000000e+00 0.0000000000000000e+00 0.0000000000000000e+00  0.0000000000000000e+00 0.0000000000000000e+00 0.0000000000000000e+00  0.0000000000000000e+00 0.0000000000000000e+00 0.0000000000000000e+00  0.0000000000000000e+00 0.0000000000000000e+00 0.0000000000000000e+00  0.0000000000000000e+00 0.0000000000000000e+00 0.0000000000000000e+00  </DataArray> 
</PointData> 
</Piece>
</UnstructuredGrid>
</VTKFile>