<?xml version="1.0"?>
<VTKFile type="UnstructuredGrid"  version="0.1"  >
<UnstructuredGrid>
<Piece  NumberOfPoints="121" NumberOfCells="200">
<Points>
<DataArray  type="Float64"  NumberOfComponents="3"  format="ascii">0 0 0  0.1 0 0  0.2 0 0  0.3 0 0  0.4 0 0  0.5 0 0  0.6 0 0  0.7 0 0  0.8 0 0  0.9 0 0  1 0 0  0 0.1 0  0.1 0.1 0  0.2 0.1 0  0.3 0.1 0  0.4 0.1 0  0.5 0.1 0  0.6 0.1 0  0.7 0.1 0  0.8 0.1 0  0.9 0.1 0  1 0.1 0  0 0.2 0  0.1 0.2 0  0.2 0.2 0  0.3 0.2 0  0.4 0.2 0  0.5 0.2 0  0.6 0.2 0  0.7 0.2 0  0.8 0.2 0  0.9 0.2 0  1 0.2 0  0 0.3 0  0.1 0.3 0  0.2 0.3 0  0.3 0.3 0  0.4 0.3 0  0.5 0.3 0  0.6 0.3 0  0.7 0.3 0  0.8 0.3 0  0.9 0.3 0  1 0.3 0  0 0.4 0  0.1 0.4 0  0.2 0.4 0  0.3 0.4 0  0.4 0.4 0  0.5 0.4 0  0.6 0.4 0  0.7 0.4 0  0.8 0.4 0  0.9 0.4 0  1 0.4 0  0 0.5 0  0.1 0.5 0  0.2 0.5 0  0.3 0.5 0  0.4 0.5 0  0.5 0.5 0  0.6 0.5 0  0.7 0.5 0  0.8 0.5 0  0.9 0.5 0  1 0.5 0  0 0.6 0  0.1 0.6 0  0.2 0.6 0  0.3 0.6 0  0.4 0.6 0  0.5 0.6 0  0.6 0.6 0  0.7 0.6 0  0.8 0.6 0  0.9 0.6 0  1 0.6 0  0 0.7 0  0.1 0.7 0  0.2 0.7 0  0.3 0.7 0  0.4 0.7 0  0.5 0.7 0  0.6 0.7 0  0.7 0.7 0  0.8 0.7 0  0.9 0.7 0  1 0.7 0  0 0.8 0  0.1 0.8 0  0.2 0.8 0  0.3 0.8 0  0.4 0.8 0  0.5 0.8 0  0.6 0.8 0  0.7 0.8 0  0.8 0.8 0  0.9 0.8 0  1 0.8 0  0 0.9 0  0.1 0.9 0  0.2 0.9 0  0.3 0.9 0  0.4 0.9 0  0.5 0.9 0  0.6 0.9 0  0.7 0.9 0  0.8 0.9 0  0.9 0.9 0  1 0.9 0  0 1 0  0.1 1 0  0.2 1 0  0.3 1 0  0.4 1 0  0.5 1 0  0.6 1 0  0.7 1 0  0.8 1 0  0.9 1 0  1 1 0  </DataArray>
</Points>
<Cells>
<DataArray  type="UInt32"  Name="connectivity"  format="ascii">0 1 12  0 11 12  1 2 13  1 12 13  2 3 14  2 13 14  3 4 15  3 14 15  4 5 16  4 15 16  5 6 17  5 16 17  6 7 18  6 17 18  7 8 19  7 18 19  8 9 20  8 19 20  9 10 21  9 20 21  11 12 23  11 22 23  12 13 24  12 23 24  13 14 25  13 24 25  14 15 26  14 25 26  15 16 27  15 26 27  16 17 28  16 27 28  17 18 29  17 28 29  18 19 30  18 29 30  19 20 31  19 30 31  20 21 32  20 31 32  22 23 34  22 33 34  23 24 35  23 34 35  24 25 36  24 35 36  25 26 37  25 36 37  26 27 38  26 37 38  27 28 39  27 38 39  28 29 40  28 39 40  29 30 41  29 40 41  30 31 42  30 41 42  31 32 43  31 42 43  33 34 45  33 44 45  34 35 46  34 45 46  35 36 47  35 46 47  36 37 48  36 47 48  37 38 49  37 48 49  38 39 50  38 49 50  39 40 51  39 50 51  40 41 52  40 51 52  41 42 53  41 52 53  42 43 54  42 53 54  44 45 56  44 55 56  45 46 57  45 56 57  46 47 58  46 57 58  47 48 59  47 58 59  48 49 60  48 59 60  49 50 61  49 60 61  50 51 62  50 61 62  51 52 63  51 62 63  52 53 64  52 63 64  53 54 65  53 64 65  55 56 67  55 66 67  56 57 68  56 67 68  57 58 69  57 68 69  58 59 70  58 69 70  59 60 71  59 70 71  60 61 72  60 71 72  61 62 73  61 72 73  62 63 74  62 73 74  63 64 75  63 74 75  64 65 76  64 75 76  66 67 78  66 77 78  67 68 79  67 78 79  68 69 80  68 79 80  69 70 81  69 80 81  70 71 82  70 81 82  71 72 83  71 82 83  72 73 84  72 83 84  73 74 85  73 84 85  74 75 86  74 85 86  75 76 87  75 86 87  77 78 89  77 88 89  78 79 90  78 89 90  79 80 91  79 90 91  80 81 92  80 91 92  81 82 93  81 92 93  82 83 94  82 93 94  83 84 95  83 94 95  84 85 96  84 95 96  85 86 97  85 96 97  86 87 98  86 97 98  88 89 100  88 99 100  89 90 101  89 100 101  90 91 102  90 101 102  91 92 103  91 102 103  92 93 104  92 103 104  93 94 105  93 104 105  94 95 106  94 105 106  95 96 107  95 106 107  96 97 108  96 107 108  97 98 109  97 108 109  99 100 111  99 110 111  100 101 112  100 111 112  101 102 113  101 112 113  102 103 114  102 113 114  103 104 115  103 114 115  104 105 116  104 115 116  105 106 117  105 116 117  106 107 118  106 117 118  107 108 119  107 118 119  108 109 120  108 119 120  </DataArray>
<DataArray  type="UInt32"  Name="offsets"  format="ascii">3 6 9 12 15 18 21 24 27 30 33 36 39 42 45 48 51 54 57 60 63 66 69 72 75 78 81 84 87 90 93 96 99 102 105 108 111 114 117 120 123 126 129 132 135 138 141 144 147 150 153 156 159 162 165 168 171 174 177 180 183 186 189 192 195 198 201 204 207 210 213 216 219 222 225 228 231 234 237 240 243 246 249 252 255 258 261 264 267 270 273 276 279 282 285 288 291 294 297 300 303 306 309 312 315 318 321 324 327 330 333 336 339 342 345 348 351 354 357 360 363 366 369 372 375 378 381 384 387 390 393 396 399 402 405 408 411 414 417 420 423 426 429 432 435 438 441 444 447 450 453 456 459 462 465 468 471 474 477 480 483 486 489 492 495 498 501 504 507 510 513 516 519 522 525 528 531 534 537 540 543 546 549 552 555 558 561 564 567 570 573 576 579 582 585 588 591 594 597 600 </DataArray>
<DataArray  type="UInt8"  Name="types"  format="ascii">5 5 5 5 5 5 5 5 5 5 5 5 5 5 5 5 5 5 5 5 5 5 5 5 5 5 5 5 5 5 5 5 5 5 5 5 5 5 5 5 5 5 5 5 5 5 5 5 5 5 5 5 5 5 5 5 5 5 5 5 5 5 5 5 5 5 5 5 5 5 5 5 5 5 5 5 5 5 5 5 5 5 5 5 5 5 5 5 5 5 5 5 5 5 5 5 5 5 5 5 5 5 5 5 5 5 5 5 5 5 5 5 5 5 5 5 5 5 5 5 5 5 5 5 5 5 5 5 5 5 5 5 5 5 5 5 5 5 5 5 5 5 5 5 5 5 5 5 5 5 5 5 5 5 5 5 5 5 5 5 5 5 5 5 5 5 5 5 5 5 5 5 5 5 5 5 5 5 5 5 5 5 5 5 5 5 5 5 5 5 5 5 5 5 5 5 5 5 5 5 </DataArray>
</Cells>
<PointData  Vectors="f_22"> 
<DataArray  type="Float64"  Name="f_22"  NumberOfComponents="3" format="ascii">0.0000000000000000e+00 0.0000000000000000e+00 0.0000000000000000e+00  0.0000000000000000e+00 0.0000000000000000e+00 0.0000000000000000e+00  0.0000000000000000e+00 0.0000000000000000e+00 0.0000000000000000e+00  0.0000000000000000e+00 0.0000000000000000e+00 0.0000000000000000e+00  0.0000000000000000e+00 0.0000000000000000e+00 0.0000000000000000e+00  0.0000000000000000e+00 0.0000000000000000e+00 0.0000000000000000e+00  0.0000000000000000e+00 0.0000000000000000e+00 0.0000000000000000e+00  0.0000000000000000e+00 0.0000000000000000e+00 0.0000000000000000e+00  0.0000000000000000e+00 0.0000000000000000e+00 0.0000000000000000e+00  0.0000000000000000e+00 0.0000000000000000e+00 0.0000000000000000e+00  0.0000000000000000e+00 0.0000000000000000e+00 0.0000000000000000e+00  0.0000000000000000e+00 0.0000000000000000e+00 0.0000000000000000e+00  -7.9726875586677830e-03 6.5828594038142103e-03 0.0000000000000000e+00  6.9067578625563316e-04 -7.6300538527756629e-03 0.0000000000000000e+00  2.8438700870099917e-02 -1.6611319481224466e-02 0.0000000000000000e+00  6.5899698977078217e-02 -2.0488226188883022e-02 0.0000000000000000e+00  1.0756440284851629e-01 -2.2567814413739486e-02 0.0000000000000000e+00  1.5238734417480723e-01 -2.5335527072074392e-02 0.0000000000000000e+00  2.0246851955484396e-01 -3.0327079749924438e-02 0.0000000000000000e+00  2.6178158427720688e-01 -3.8086028780829027e-02 0.0000000000000000e+00  3.3339264358302040e-01 -4.8463704983161431e-02 0.0000000000000000e+00  4.0781636460885407e-01 -5.8875649357373688e-02 0.0000000000000000e+00  0.0000000000000000e+00 0.0000000000000000e+00 0.0000000000000000e+00  -1.2379046748795869e-03 4.4046858372017066e-03 0.0000000000000000e+00  1.9362902558577099e-02 -3.3948963888293604e-02 0.0000000000000000e+00  6.0648335759205356e-02 -5.8431786077023297e-02 0.0000000000000000e+00  1.1224012895972678e-01 -6.8944866821484846e-02 0.0000000000000000e+00  1.6748780156150897e-01 -7.3759577063795267e-02 0.0000000000000000e+00  2.2418729527879647e-01 -7.9533965331631526e-02 0.0000000000000000e+00  2.8390492596150768e-01 -9.1049812497616206e-02 0.0000000000000000e+00  3.5092178251897305e-01 -1.1140930271379751e-01 0.0000000000000000e+00  4.3077111389287348e-01 -1.3897411194960760e-01 0.0000000000000000e+00  5.1604056134098697e-01 -1.6470037466711698e-01 0.0000000000000000e+00  0.0000000000000000e+00 0.0000000000000000e+00 0.0000000000000000e+00  3.6576041374621141e-04 -5.7937995857397099e-03 0.0000000000000000e+00  2.4125015133297439e-02 -7.0487908821676062e-02 0.0000000000000000e+00  6.8188063068948215e-02 -1.1037663329591867e-01 0.0000000000000000e+00  1.2145236834353505e-01 -1.2635531786937770e-01 0.0000000000000000e+00  1.7620571179013461e-01 -1.3152100015759077e-01 0.0000000000000000e+00  2.2876880455325260e-01 -1.3652376778097428e-01 0.0000000000000000e+00  2.7981008603947077e-01 -1.4963616309767552e-01 0.0000000000000000e+00  3.3496243159217159e-01 -1.7563982942570636e-01 0.0000000000000000e+00  3.9979111982858795e-01 -2.1544773961092722e-01 0.0000000000000000e+00  4.7528268206429314e-01 -2.7471966370142853e-01 0.0000000000000000e+00  0.0000000000000000e+00 0.0000000000000000e+00 0.0000000000000000e+00  1.4357680927474805e-03 -1.5023559541002761e-02 0.0000000000000000e+00  2.6475190844459581e-02 -1.0362941453903178e-01 0.0000000000000000e+00  7.1362003992165968e-02 -1.5681165495867330e-01 0.0000000000000000e+00  1.2493728612128049e-01 -1.7690835829729243e-01 0.0000000000000000e+00  1.7738299017076131e-01 -1.7942220976753631e-01 0.0000000000000000e+00  2.2102918235576813e-01 -1.7837840865137486e-01 0.0000000000000000e+00  2.5446465406618957e-01 -1.8907928532107629e-01 0.0000000000000000e+00  2.8368923111784378e-01 -2.2496164389049675e-01 0.0000000000000000e+00  3.1734665962594744e-01 -2.9559383703576980e-01 0.0000000000000000e+00  3.5280018619736214e-01 -3.5104957604453890e-01 0.0000000000000000e+00  0.0000000000000000e+00 0.0000000000000000e+00 0.0000000000000000e+00  2.5944524580959779e-03 -3.0091934592984246e-02 0.0000000000000000e+00  2.8048677053919824e-02 -1.4702967460744781e-01 0.0000000000000000e+00  7.3801388564864387e-02 -2.1714278219379923e-01 0.0000000000000000e+00  1.2888116623668547e-01 -2.4101982834045654e-01 0.0000000000000000e+00  1.7808125177359030e-01 -2.3255984169828128e-01 0.0000000000000000e+00  2.0647285115595762e-01 -2.1139321776728107e-01 0.0000000000000000e+00  2.1211454881070696e-01 -2.0596550327591440e-01 0.0000000000000000e+00  2.0326721689677721e-01 -2.3485514436086075e-01 0.0000000000000000e+00  1.9747376173942807e-01 -2.8692478250668646e-01 0.0000000000000000e+00  0.0000000000000000e+00 0.0000000000000000e+00 0.0000000000000000e+00  0.0000000000000000e+00 0.0000000000000000e+00 0.0000000000000000e+00  3.7727149844344319e-03 -4.0090452069645711e-02 0.0000000000000000e+00  2.9722892382768991e-02 -1.7478722077083031e-01 0.0000000000000000e+00  7.4789599435637011e-02 -2.5549621517404425e-01 0.0000000000000000e+00  1.2780360214041520e-01 -2.8085548211141215e-01 0.0000000000000000e+00  1.6657677060363899e-01 -2.5302299343860857e-01 0.0000000000000000e+00  1.6751401858034581e-01 -1.9938316459244776e-01 0.0000000000000000e+00  1.3497346535111446e-01 -1.7813293420382187e-01 0.0000000000000000e+00  1.0200727129666792e-01 -2.0831417817026621e-01 0.0000000000000000e+00  2.9897748103949622e-02 -2.2481392894788563e-01 0.0000000000000000e+00  0.0000000000000000e+00 0.0000000000000000e+00 0.0000000000000000e+00  0.0000000000000000e+00 0.0000000000000000e+00 0.0000000000000000e+00  5.3130477680574167e-03 -5.7786416387236764e-02 0.0000000000000000e+00  2.7725486787231954e-02 -2.2074128715983701e-01 0.0000000000000000e+00  6.7835065324862664e-02 -3.2645622453595319e-01 0.0000000000000000e+00  1.1462585871566611e-01 -3.5492879854258835e-01 0.0000000000000000e+00  1.3214491544323756e-01 -2.7911690558734858e-01 0.0000000000000000e+00  9.4948202355527825e-02 -1.7097311517919048e-01 0.0000000000000000e+00  2.4034756844994547e-02 -1.3479647497753144e-01 0.0000000000000000e+00  -9.3151901957865459e-03 -1.6094581927602983e-01 0.0000000000000000e+00  -2.0391515802820992e-01 -1.2216805420365408e-01 0.0000000000000000e+00  0.0000000000000000e+00 0.0000000000000000e+00 0.0000000000000000e+00  0.0000000000000000e+00 0.0000000000000000e+00 0.0000000000000000e+00  5.4798609429423280e-03 -6.8268388938194896e-02 0.0000000000000000e+00  2.5424805742854436e-02 -2.3850644306304036e-01 0.0000000000000000e+00  5.7289238551691581e-02 -3.4477237265105876e-01 0.0000000000000000e+00  8.5622251607594582e-02 -3.5149626594870104e-01 0.0000000000000000e+00  7.2761968264894838e-02 -2.0878185098882110e-01 0.0000000000000000e+00  7.6727316054709688e-03 -7.4010828348885699e-02 0.0000000000000000e+00  -9.1794172635981039e-02 -4.8146995012317617e-02 0.0000000000000000e+00  -1.2376669182501276e-01 -6.6115533620585240e-02 0.0000000000000000e+00  -4.7142123648404566e-01 -5.0599235000763337e-03 0.0000000000000000e+00  0.0000000000000000e+00 0.0000000000000000e+00 0.0000000000000000e+00  0.0000000000000000e+00 0.0000000000000000e+00 0.0000000000000000e+00  6.9952983007583718e-03 -8.4701110225379517e-02 0.0000000000000000e+00  2.1636656905459940e-02 -2.6819307025945149e-01 0.0000000000000000e+00  3.6069472035652132e-02 -3.9233057699905183e-01 0.0000000000000000e+00  4.5286412368868427e-02 -4.0570547431858550e-01 0.0000000000000000e+00  1.8888852960757645e-02 -2.0820485675313027e-01 0.0000000000000000e+00  -5.0870214082283878e-02 -4.3424763638796819e-02 0.0000000000000000e+00  -1.2652810588239954e-01 3.6737258073223804e-02 0.0000000000000000e+00  -1.7285503355188422e-01 1.1134019144763069e-01 0.0000000000000000e+00  -6.6972351478917036e-01 9.9550264561760360e-02 0.0000000000000000e+00  0.0000000000000000e+00 0.0000000000000000e+00 0.0000000000000000e+00  0.0000000000000000e+00 0.0000000000000000e+00 0.0000000000000000e+00  7.7480358452681145e-03 -9.7049459797560994e-02 0.0000000000000000e+00  1.8617057305683790e-02 -2.7245104065117104e-01 0.0000000000000000e+00  2.6528471053699952e-02 -3.8715519001040377e-01 0.0000000000000000e+00  2.7058475554133776e-02 -3.7331449489683316e-01 0.0000000000000000e+00  0.0000000000000000e+00 0.0000000000000000e+00 0.0000000000000000e+00  0.0000000000000000e+00 0.0000000000000000e+00 0.0000000000000000e+00  0.0000000000000000e+00 0.0000000000000000e+00 0.0000000000000000e+00  0.0000000000000000e+00 0.0000000000000000e+00 0.0000000000000000e+00  0.0000000000000000e+00 0.0000000000000000e+00 0.0000000000000000e+00  0.0000000000000000e+00 0.0000000000000000e+00 0.0000000000000000e+00  </DataArray> 
</PointData> 
</Piece>
</UnstructuredGrid>
</VTKFile>