<?xml version="1.0"?>
<VTKFile type="UnstructuredGrid"  version="0.1"  >
<UnstructuredGrid>
<Piece  NumberOfPoints="121" NumberOfCells="200">
<Points>
<DataArray  type="Float64"  NumberOfComponents="3"  format="ascii">0 0 0  0.1 0 0  0.2 0 0  0.3 0 0  0.4 0 0  0.5 0 0  0.6 0 0  0.7 0 0  0.8 0 0  0.9 0 0  1 0 0  0 0.1 0  0.1 0.1 0  0.2 0.1 0  0.3 0.1 0  0.4 0.1 0  0.5 0.1 0  0.6 0.1 0  0.7 0.1 0  0.8 0.1 0  0.9 0.1 0  1 0.1 0  0 0.2 0  0.1 0.2 0  0.2 0.2 0  0.3 0.2 0  0.4 0.2 0  0.5 0.2 0  0.6 0.2 0  0.7 0.2 0  0.8 0.2 0  0.9 0.2 0  1 0.2 0  0 0.3 0  0.1 0.3 0  0.2 0.3 0  0.3 0.3 0  0.4 0.3 0  0.5 0.3 0  0.6 0.3 0  0.7 0.3 0  0.8 0.3 0  0.9 0.3 0  1 0.3 0  0 0.4 0  0.1 0.4 0  0.2 0.4 0  0.3 0.4 0  0.4 0.4 0  0.5 0.4 0  0.6 0.4 0  0.7 0.4 0  0.8 0.4 0  0.9 0.4 0  1 0.4 0  0 0.5 0  0.1 0.5 0  0.2 0.5 0  0.3 0.5 0  0.4 0.5 0  0.5 0.5 0  0.6 0.5 0  0.7 0.5 0  0.8 0.5 0  0.9 0.5 0  1 0.5 0  0 0.6 0  0.1 0.6 0  0.2 0.6 0  0.3 0.6 0  0.4 0.6 0  0.5 0.6 0  0.6 0.6 0  0.7 0.6 0  0.8 0.6 0  0.9 0.6 0  1 0.6 0  0 0.7 0  0.1 0.7 0  0.2 0.7 0  0.3 0.7 0  0.4 0.7 0  0.5 0.7 0  0.6 0.7 0  0.7 0.7 0  0.8 0.7 0  0.9 0.7 0  1 0.7 0  0 0.8 0  0.1 0.8 0  0.2 0.8 0  0.3 0.8 0  0.4 0.8 0  0.5 0.8 0  0.6 0.8 0  0.7 0.8 0  0.8 0.8 0  0.9 0.8 0  1 0.8 0  0 0.9 0  0.1 0.9 0  0.2 0.9 0  0.3 0.9 0  0.4 0.9 0  0.5 0.9 0  0.6 0.9 0  0.7 0.9 0  0.8 0.9 0  0.9 0.9 0  1 0.9 0  0 1 0  0.1 1 0  0.2 1 0  0.3 1 0  0.4 1 0  0.5 1 0  0.6 1 0  0.7 1 0  0.8 1 0  0.9 1 0  1 1 0  </DataArray>
</Points>
<Cells>
<DataArray  type="UInt32"  Name="connectivity"  format="ascii">0 1 12  0 11 12  1 2 13  1 12 13  2 3 14  2 13 14  3 4 15  3 14 15  4 5 16  4 15 16  5 6 17  5 16 17  6 7 18  6 17 18  7 8 19  7 18 19  8 9 20  8 19 20  9 10 21  9 20 21  11 12 23  11 22 23  12 13 24  12 23 24  13 14 25  13 24 25  14 15 26  14 25 26  15 16 27  15 26 27  16 17 28  16 27 28  17 18 29  17 28 29  18 19 30  18 29 30  19 20 31  19 30 31  20 21 32  20 31 32  22 23 34  22 33 34  23 24 35  23 34 35  24 25 36  24 35 36  25 26 37  25 36 37  26 27 38  26 37 38  27 28 39  27 38 39  28 29 40  28 39 40  29 30 41  29 40 41  30 31 42  30 41 42  31 32 43  31 42 43  33 34 45  33 44 45  34 35 46  34 45 46  35 36 47  35 46 47  36 37 48  36 47 48  37 38 49  37 48 49  38 39 50  38 49 50  39 40 51  39 50 51  40 41 52  40 51 52  41 42 53  41 52 53  42 43 54  42 53 54  44 45 56  44 55 56  45 46 57  45 56 57  46 47 58  46 57 58  47 48 59  47 58 59  48 49 60  48 59 60  49 50 61  49 60 61  50 51 62  50 61 62  51 52 63  51 62 63  52 53 64  52 63 64  53 54 65  53 64 65  55 56 67  55 66 67  56 57 68  56 67 68  57 58 69  57 68 69  58 59 70  58 69 70  59 60 71  59 70 71  60 61 72  60 71 72  61 62 73  61 72 73  62 63 74  62 73 74  63 64 75  63 74 75  64 65 76  64 75 76  66 67 78  66 77 78  67 68 79  67 78 79  68 69 80  68 79 80  69 70 81  69 80 81  70 71 82  70 81 82  71 72 83  71 82 83  72 73 84  72 83 84  73 74 85  73 84 85  74 75 86  74 85 86  75 76 87  75 86 87  77 78 89  77 88 89  78 79 90  78 89 90  79 80 91  79 90 91  80 81 92  80 91 92  81 82 93  81 92 93  82 83 94  82 93 94  83 84 95  83 94 95  84 85 96  84 95 96  85 86 97  85 96 97  86 87 98  86 97 98  88 89 100  88 99 100  89 90 101  89 100 101  90 91 102  90 101 102  91 92 103  91 102 103  92 93 104  92 103 104  93 94 105  93 104 105  94 95 106  94 105 106  95 96 107  95 106 107  96 97 108  96 107 108  97 98 109  97 108 109  99 100 111  99 110 111  100 101 112  100 111 112  101 102 113  101 112 113  102 103 114  102 113 114  103 104 115  103 114 115  104 105 116  104 115 116  105 106 117  105 116 117  106 107 118  106 117 118  107 108 119  107 118 119  108 109 120  108 119 120  </DataArray>
<DataArray  type="UInt32"  Name="offsets"  format="ascii">3 6 9 12 15 18 21 24 27 30 33 36 39 42 45 48 51 54 57 60 63 66 69 72 75 78 81 84 87 90 93 96 99 102 105 108 111 114 117 120 123 126 129 132 135 138 141 144 147 150 153 156 159 162 165 168 171 174 177 180 183 186 189 192 195 198 201 204 207 210 213 216 219 222 225 228 231 234 237 240 243 246 249 252 255 258 261 264 267 270 273 276 279 282 285 288 291 294 297 300 303 306 309 312 315 318 321 324 327 330 333 336 339 342 345 348 351 354 357 360 363 366 369 372 375 378 381 384 387 390 393 396 399 402 405 408 411 414 417 420 423 426 429 432 435 438 441 444 447 450 453 456 459 462 465 468 471 474 477 480 483 486 489 492 495 498 501 504 507 510 513 516 519 522 525 528 531 534 537 540 543 546 549 552 555 558 561 564 567 570 573 576 579 582 585 588 591 594 597 600 </DataArray>
<DataArray  type="UInt8"  Name="types"  format="ascii">5 5 5 5 5 5 5 5 5 5 5 5 5 5 5 5 5 5 5 5 5 5 5 5 5 5 5 5 5 5 5 5 5 5 5 5 5 5 5 5 5 5 5 5 5 5 5 5 5 5 5 5 5 5 5 5 5 5 5 5 5 5 5 5 5 5 5 5 5 5 5 5 5 5 5 5 5 5 5 5 5 5 5 5 5 5 5 5 5 5 5 5 5 5 5 5 5 5 5 5 5 5 5 5 5 5 5 5 5 5 5 5 5 5 5 5 5 5 5 5 5 5 5 5 5 5 5 5 5 5 5 5 5 5 5 5 5 5 5 5 5 5 5 5 5 5 5 5 5 5 5 5 5 5 5 5 5 5 5 5 5 5 5 5 5 5 5 5 5 5 5 5 5 5 5 5 5 5 5 5 5 5 5 5 5 5 5 5 5 5 5 5 5 5 5 5 5 5 5 5 </DataArray>
</Cells>
<PointData  Vectors="f_47"> 
<DataArray  type="Float64"  Name="f_47"  NumberOfComponents="3" format="ascii">0.0000000000000000e+00 0.0000000000000000e+00 0.0000000000000000e+00  0.0000000000000000e+00 0.0000000000000000e+00 0.0000000000000000e+00  0.0000000000000000e+00 0.0000000000000000e+00 0.0000000000000000e+00  0.0000000000000000e+00 0.0000000000000000e+00 0.0000000000000000e+00  0.0000000000000000e+00 0.0000000000000000e+00 0.0000000000000000e+00  0.0000000000000000e+00 0.0000000000000000e+00 0.0000000000000000e+00  0.0000000000000000e+00 0.0000000000000000e+00 0.0000000000000000e+00  0.0000000000000000e+00 0.0000000000000000e+00 0.0000000000000000e+00  0.0000000000000000e+00 0.0000000000000000e+00 0.0000000000000000e+00  0.0000000000000000e+00 0.0000000000000000e+00 0.0000000000000000e+00  0.0000000000000000e+00 0.0000000000000000e+00 0.0000000000000000e+00  0.0000000000000000e+00 0.0000000000000000e+00 0.0000000000000000e+00  8.1953636904487079e-02 -1.0077822769354938e-01 0.0000000000000000e+00  2.7267688959848296e-01 -1.6938799087868250e-01 0.0000000000000000e+00  5.1165479254883173e-01 -1.9586110281504004e-01 0.0000000000000000e+00  7.6584958455765917e-01 -2.0813940125133137e-01 0.0000000000000000e+00  1.0391431893362961e+00 -2.2631438881048141e-01 0.0000000000000000e+00  1.3608606088997091e+00 -2.7344865164715310e-01 0.0000000000000000e+00  1.7065219867164592e+00 -3.2348979154809665e-01 0.0000000000000000e+00  2.0459946140269483e+00 -3.5414560606262174e-01 0.0000000000000000e+00  2.4431998629544522e+00 -3.2682746434578142e-01 0.0000000000000000e+00  2.8494792568204321e+00 -3.0732630031751157e-01 0.0000000000000000e+00  0.0000000000000000e+00 0.0000000000000000e+00 0.0000000000000000e+00  9.3445878026358176e-02 -2.1990650762207700e-01 0.0000000000000000e+00  2.8815589455064344e-01 -3.4558508520973596e-01 0.0000000000000000e+00  5.3531102737102076e-01 -3.7772621479538954e-01 0.0000000000000000e+00  7.9182764043134946e-01 -3.8329167998780822e-01 0.0000000000000000e+00  1.0494081317377826e+00 -3.8527243441460157e-01 0.0000000000000000e+00  1.3445455818921870e+00 -4.1253285036296233e-01 0.0000000000000000e+00  1.7596499826736185e+00 -5.0672533328886860e-01 0.0000000000000000e+00  2.1605599835025004e+00 -6.1591159247889637e-01 0.0000000000000000e+00  2.5283028753795791e+00 -7.6911539030664167e-01 0.0000000000000000e+00  3.1042483856467120e+00 -8.2897505587503395e-01 0.0000000000000000e+00  0.0000000000000000e+00 0.0000000000000000e+00 0.0000000000000000e+00  7.8719569985887666e-02 -4.7809997812729582e-01 0.0000000000000000e+00  2.7550279887205492e-01 -7.3619690567842710e-01 0.0000000000000000e+00  5.1430740452186585e-01 -8.3893414973070346e-01 0.0000000000000000e+00  7.5748719419435662e-01 -8.9550164722733661e-01 0.0000000000000000e+00  9.9250346683833679e-01 -9.4451192025125175e-01 0.0000000000000000e+00  1.2127114893291584e+00 -1.0072136022623681e+00 0.0000000000000000e+00  1.4736740629938287e+00 -1.1321448200984177e+00 0.0000000000000000e+00  2.0491181956743580e+00 -1.2314601196978352e+00 0.0000000000000000e+00  2.6549390081858468e+00 -1.2256849710695703e+00 0.0000000000000000e+00  3.0245192687608666e+00 -1.8066910133488809e+00 0.0000000000000000e+00  0.0000000000000000e+00 0.0000000000000000e+00 0.0000000000000000e+00  1.0992197788898297e-01 -4.5911739924524458e-01 0.0000000000000000e+00  2.9056264454703745e-01 -6.9410541660988034e-01 0.0000000000000000e+00  5.1092945579964211e-01 -7.2441497827270040e-01 0.0000000000000000e+00  7.3152848897655298e-01 -7.2489715084459760e-01 0.0000000000000000e+00  9.4377032218706791e-01 -7.4803857279055475e-01 0.0000000000000000e+00  1.1226116601236458e+00 -7.9652531609565957e-01 0.0000000000000000e+00  1.1546036684372494e+00 -9.3389105592517241e-01 0.0000000000000000e+00  5.5935628409848148e-01 -1.5200117666185549e+00 0.0000000000000000e+00  7.9280832987264838e-01 -1.3765791243980268e+00 0.0000000000000000e+00  1.0497446490008211e+00 -1.1889395032681054e+00 0.0000000000000000e+00  0.0000000000000000e+00 0.0000000000000000e+00 0.0000000000000000e+00  6.3251625525452174e-02 -8.7151810863777623e-01 0.0000000000000000e+00  2.5046238427726475e-01 -1.2659255336771704e+00 0.0000000000000000e+00  4.6563567826119567e-01 -1.4396132538878805e+00 0.0000000000000000e+00  6.9097888574368127e-01 -1.5362002601998652e+00 0.0000000000000000e+00  9.0689759380991775e-01 -1.5717678985791594e+00 0.0000000000000000e+00  1.0421445753322010e+00 -1.5666344713676661e+00 0.0000000000000000e+00  1.1061638188473131e+00 -1.5496768587404286e+00 0.0000000000000000e+00  1.2914827908906175e+00 -1.3307932099252733e+00 0.0000000000000000e+00  -6.7957247234315883e+00 -6.9946522090385317e+00 0.0000000000000000e+00  0.0000000000000000e+00 0.0000000000000000e+00 0.0000000000000000e+00  0.0000000000000000e+00 0.0000000000000000e+00 0.0000000000000000e+00  1.4084372121194264e-01 -7.3464076720892968e-01 0.0000000000000000e+00  3.0623881752601900e-01 -1.0350323649838673e+00 0.0000000000000000e+00  4.9141263347351621e-01 -1.0315219873284551e+00 0.0000000000000000e+00  6.8350184288779725e-01 -9.9083865016447470e-01 0.0000000000000000e+00  8.9571438558082850e-01 -9.2250137165506851e-01 0.0000000000000000e+00  1.0186783017729728e+00 -6.7468917609624635e-01 0.0000000000000000e+00  9.7764370687255719e-01 -2.3770245836711845e-01 0.0000000000000000e+00  5.1582985971078510e-01 2.6670952023524380e-01 0.0000000000000000e+00  3.7905471620241311e+00 3.1427458766078731e+00 0.0000000000000000e+00  0.0000000000000000e+00 0.0000000000000000e+00 0.0000000000000000e+00  0.0000000000000000e+00 0.0000000000000000e+00 0.0000000000000000e+00  3.8862039780984937e-02 -1.1571263437382777e+00 0.0000000000000000e+00  1.4471460662953872e-01 -1.6193153030625034e+00 0.0000000000000000e+00  3.5209657992930993e-01 -1.9720279548400166e+00 0.0000000000000000e+00  5.2274839492715408e-01 -2.1619890401300279e+00 0.0000000000000000e+00  6.6320134405660713e-01 -1.9935265658711043e+00 0.0000000000000000e+00  5.8602658813799879e-01 -1.7435207039940683e+00 0.0000000000000000e+00  6.5335216128841234e-01 -1.9149252229126970e+00 0.0000000000000000e+00  2.2239881176115865e+00 -2.1584839647149123e+00 0.0000000000000000e+00  5.9422854492214778e+00 -2.8301760824144413e+00 0.0000000000000000e+00  0.0000000000000000e+00 0.0000000000000000e+00 0.0000000000000000e+00  0.0000000000000000e+00 0.0000000000000000e+00 0.0000000000000000e+00  8.3805605561131216e-02 -1.0753250059183850e+00 0.0000000000000000e+00  2.0740276156715298e-01 -1.3677081487111928e+00 0.0000000000000000e+00  3.4933666961527993e-01 -1.3556030726548836e+00 0.0000000000000000e+00  1.6588623311306527e-01 -1.1478354629240659e+00 0.0000000000000000e+00  3.9692928657239440e-01 -4.6854835625058655e-01 0.0000000000000000e+00  4.4372969004729340e-01 -1.4800128949680569e-01 0.0000000000000000e+00  6.8212288754946193e-01 6.7691950533344730e-02 0.0000000000000000e+00  -1.3953649318561370e+00 -3.1814541393629652e+00 0.0000000000000000e+00  -8.9086803770627139e+00 -6.4313189311925418e+00 0.0000000000000000e+00  0.0000000000000000e+00 0.0000000000000000e+00 0.0000000000000000e+00  0.0000000000000000e+00 0.0000000000000000e+00 0.0000000000000000e+00  -3.9305865924477990e-02 -1.1170211302186737e+00 0.0000000000000000e+00  -1.4973767352764308e-01 -1.4133104014477416e+00 0.0000000000000000e+00  -6.4149267131872223e-01 -1.9562024255117922e+00 0.0000000000000000e+00  -6.9412494836842842e-01 -2.7140094824668330e+00 0.0000000000000000e+00  1.1266281766890046e-01 -2.5351030611849690e+00 0.0000000000000000e+00  -5.5970790613850123e-02 -2.5459707080963718e+00 0.0000000000000000e+00  3.4497070763592916e-02 -2.8365606233508429e+00 0.0000000000000000e+00  8.8342868582611311e-01 -5.4470744798776245e+00 0.0000000000000000e+00  9.4332809265857822e+00 -2.1783372652024706e+00 0.0000000000000000e+00  0.0000000000000000e+00 0.0000000000000000e+00 0.0000000000000000e+00  0.0000000000000000e+00 0.0000000000000000e+00 0.0000000000000000e+00  -5.8011426717066168e-02 -1.1255793350813692e+00 0.0000000000000000e+00  -2.0067647355287074e-01 -1.3336528768255751e+00 0.0000000000000000e+00  -9.4032190538117377e-01 -1.4928072749889545e+00 0.0000000000000000e+00  -9.8540120688687327e-01 -1.7702729078454584e+00 0.0000000000000000e+00  0.0000000000000000e+00 0.0000000000000000e+00 0.0000000000000000e+00  0.0000000000000000e+00 0.0000000000000000e+00 0.0000000000000000e+00  0.0000000000000000e+00 0.0000000000000000e+00 0.0000000000000000e+00  0.0000000000000000e+00 0.0000000000000000e+00 0.0000000000000000e+00  0.0000000000000000e+00 0.0000000000000000e+00 0.0000000000000000e+00  0.0000000000000000e+00 0.0000000000000000e+00 0.0000000000000000e+00  </DataArray> 
</PointData> 
</Piece>
</UnstructuredGrid>
</VTKFile>