<?xml version="1.0"?>
<VTKFile type="UnstructuredGrid"  version="0.1"  >
<UnstructuredGrid>
<Piece  NumberOfPoints="121" NumberOfCells="200">
<Points>
<DataArray  type="Float64"  NumberOfComponents="3"  format="ascii">0 0 0  0.1 0 0  0.2 0 0  0.3 0 0  0.4 0 0  0.5 0 0  0.6 0 0  0.7 0 0  0.8 0 0  0.9 0 0  1 0 0  0 0.1 0  0.1 0.1 0  0.2 0.1 0  0.3 0.1 0  0.4 0.1 0  0.5 0.1 0  0.6 0.1 0  0.7 0.1 0  0.8 0.1 0  0.9 0.1 0  1 0.1 0  0 0.2 0  0.1 0.2 0  0.2 0.2 0  0.3 0.2 0  0.4 0.2 0  0.5 0.2 0  0.6 0.2 0  0.7 0.2 0  0.8 0.2 0  0.9 0.2 0  1 0.2 0  0 0.3 0  0.1 0.3 0  0.2 0.3 0  0.3 0.3 0  0.4 0.3 0  0.5 0.3 0  0.6 0.3 0  0.7 0.3 0  0.8 0.3 0  0.9 0.3 0  1 0.3 0  0 0.4 0  0.1 0.4 0  0.2 0.4 0  0.3 0.4 0  0.4 0.4 0  0.5 0.4 0  0.6 0.4 0  0.7 0.4 0  0.8 0.4 0  0.9 0.4 0  1 0.4 0  0 0.5 0  0.1 0.5 0  0.2 0.5 0  0.3 0.5 0  0.4 0.5 0  0.5 0.5 0  0.6 0.5 0  0.7 0.5 0  0.8 0.5 0  0.9 0.5 0  1 0.5 0  0 0.6 0  0.1 0.6 0  0.2 0.6 0  0.3 0.6 0  0.4 0.6 0  0.5 0.6 0  0.6 0.6 0  0.7 0.6 0  0.8 0.6 0  0.9 0.6 0  1 0.6 0  0 0.7 0  0.1 0.7 0  0.2 0.7 0  0.3 0.7 0  0.4 0.7 0  0.5 0.7 0  0.6 0.7 0  0.7 0.7 0  0.8 0.7 0  0.9 0.7 0  1 0.7 0  0 0.8 0  0.1 0.8 0  0.2 0.8 0  0.3 0.8 0  0.4 0.8 0  0.5 0.8 0  0.6 0.8 0  0.7 0.8 0  0.8 0.8 0  0.9 0.8 0  1 0.8 0  0 0.9 0  0.1 0.9 0  0.2 0.9 0  0.3 0.9 0  0.4 0.9 0  0.5 0.9 0  0.6 0.9 0  0.7 0.9 0  0.8 0.9 0  0.9 0.9 0  1 0.9 0  0 1 0  0.1 1 0  0.2 1 0  0.3 1 0  0.4 1 0  0.5 1 0  0.6 1 0  0.7 1 0  0.8 1 0  0.9 1 0  1 1 0  </DataArray>
</Points>
<Cells>
<DataArray  type="UInt32"  Name="connectivity"  format="ascii">0 1 12  0 11 12  1 2 13  1 12 13  2 3 14  2 13 14  3 4 15  3 14 15  4 5 16  4 15 16  5 6 17  5 16 17  6 7 18  6 17 18  7 8 19  7 18 19  8 9 20  8 19 20  9 10 21  9 20 21  11 12 23  11 22 23  12 13 24  12 23 24  13 14 25  13 24 25  14 15 26  14 25 26  15 16 27  15 26 27  16 17 28  16 27 28  17 18 29  17 28 29  18 19 30  18 29 30  19 20 31  19 30 31  20 21 32  20 31 32  22 23 34  22 33 34  23 24 35  23 34 35  24 25 36  24 35 36  25 26 37  25 36 37  26 27 38  26 37 38  27 28 39  27 38 39  28 29 40  28 39 40  29 30 41  29 40 41  30 31 42  30 41 42  31 32 43  31 42 43  33 34 45  33 44 45  34 35 46  34 45 46  35 36 47  35 46 47  36 37 48  36 47 48  37 38 49  37 48 49  38 39 50  38 49 50  39 40 51  39 50 51  40 41 52  40 51 52  41 42 53  41 52 53  42 43 54  42 53 54  44 45 56  44 55 56  45 46 57  45 56 57  46 47 58  46 57 58  47 48 59  47 58 59  48 49 60  48 59 60  49 50 61  49 60 61  50 51 62  50 61 62  51 52 63  51 62 63  52 53 64  52 63 64  53 54 65  53 64 65  55 56 67  55 66 67  56 57 68  56 67 68  57 58 69  57 68 69  58 59 70  58 69 70  59 60 71  59 70 71  60 61 72  60 71 72  61 62 73  61 72 73  62 63 74  62 73 74  63 64 75  63 74 75  64 65 76  64 75 76  66 67 78  66 77 78  67 68 79  67 78 79  68 69 80  68 79 80  69 70 81  69 80 81  70 71 82  70 81 82  71 72 83  71 82 83  72 73 84  72 83 84  73 74 85  73 84 85  74 75 86  74 85 86  75 76 87  75 86 87  77 78 89  77 88 89  78 79 90  78 89 90  79 80 91  79 90 91  80 81 92  80 91 92  81 82 93  81 92 93  82 83 94  82 93 94  83 84 95  83 94 95  84 85 96  84 95 96  85 86 97  85 96 97  86 87 98  86 97 98  88 89 100  88 99 100  89 90 101  89 100 101  90 91 102  90 101 102  91 92 103  91 102 103  92 93 104  92 103 104  93 94 105  93 104 105  94 95 106  94 105 106  95 96 107  95 106 107  96 97 108  96 107 108  97 98 109  97 108 109  99 100 111  99 110 111  100 101 112  100 111 112  101 102 113  101 112 113  102 103 114  102 113 114  103 104 115  103 114 115  104 105 116  104 115 116  105 106 117  105 116 117  106 107 118  106 117 118  107 108 119  107 118 119  108 109 120  108 119 120  </DataArray>
<DataArray  type="UInt32"  Name="offsets"  format="ascii">3 6 9 12 15 18 21 24 27 30 33 36 39 42 45 48 51 54 57 60 63 66 69 72 75 78 81 84 87 90 93 96 99 102 105 108 111 114 117 120 123 126 129 132 135 138 141 144 147 150 153 156 159 162 165 168 171 174 177 180 183 186 189 192 195 198 201 204 207 210 213 216 219 222 225 228 231 234 237 240 243 246 249 252 255 258 261 264 267 270 273 276 279 282 285 288 291 294 297 300 303 306 309 312 315 318 321 324 327 330 333 336 339 342 345 348 351 354 357 360 363 366 369 372 375 378 381 384 387 390 393 396 399 402 405 408 411 414 417 420 423 426 429 432 435 438 441 444 447 450 453 456 459 462 465 468 471 474 477 480 483 486 489 492 495 498 501 504 507 510 513 516 519 522 525 528 531 534 537 540 543 546 549 552 555 558 561 564 567 570 573 576 579 582 585 588 591 594 597 600 </DataArray>
<DataArray  type="UInt8"  Name="types"  format="ascii">5 5 5 5 5 5 5 5 5 5 5 5 5 5 5 5 5 5 5 5 5 5 5 5 5 5 5 5 5 5 5 5 5 5 5 5 5 5 5 5 5 5 5 5 5 5 5 5 5 5 5 5 5 5 5 5 5 5 5 5 5 5 5 5 5 5 5 5 5 5 5 5 5 5 5 5 5 5 5 5 5 5 5 5 5 5 5 5 5 5 5 5 5 5 5 5 5 5 5 5 5 5 5 5 5 5 5 5 5 5 5 5 5 5 5 5 5 5 5 5 5 5 5 5 5 5 5 5 5 5 5 5 5 5 5 5 5 5 5 5 5 5 5 5 5 5 5 5 5 5 5 5 5 5 5 5 5 5 5 5 5 5 5 5 5 5 5 5 5 5 5 5 5 5 5 5 5 5 5 5 5 5 5 5 5 5 5 5 5 5 5 5 5 5 5 5 5 5 5 5 </DataArray>
</Cells>
<PointData  Vectors="f_22"> 
<DataArray  type="Float64"  Name="f_22"  NumberOfComponents="3" format="ascii">0.0000000000000000e+00 0.0000000000000000e+00 0.0000000000000000e+00  0.0000000000000000e+00 0.0000000000000000e+00 0.0000000000000000e+00  0.0000000000000000e+00 0.0000000000000000e+00 0.0000000000000000e+00  0.0000000000000000e+00 0.0000000000000000e+00 0.0000000000000000e+00  0.0000000000000000e+00 0.0000000000000000e+00 0.0000000000000000e+00  0.0000000000000000e+00 0.0000000000000000e+00 0.0000000000000000e+00  0.0000000000000000e+00 0.0000000000000000e+00 0.0000000000000000e+00  0.0000000000000000e+00 0.0000000000000000e+00 0.0000000000000000e+00  0.0000000000000000e+00 0.0000000000000000e+00 0.0000000000000000e+00  0.0000000000000000e+00 0.0000000000000000e+00 0.0000000000000000e+00  0.0000000000000000e+00 0.0000000000000000e+00 0.0000000000000000e+00  0.0000000000000000e+00 0.0000000000000000e+00 0.0000000000000000e+00  1.2502621588664664e-02 -1.3928247427308428e-02 0.0000000000000000e+00  5.3208827858738261e-02 -2.9560888683346814e-02 0.0000000000000000e+00  1.0974023415975202e-01 -3.5573911333379414e-02 0.0000000000000000e+00  1.7177794615811676e-01 -3.7616677908617273e-02 0.0000000000000000e+00  2.3606643518142395e-01 -3.8981917113391960e-02 0.0000000000000000e+00  3.0244941588470647e-01 -4.0831447283620571e-02 0.0000000000000000e+00  3.7186535460460962e-01 -4.3275064746365006e-02 0.0000000000000000e+00  4.4474711374818232e-01 -4.5495910313777047e-02 0.0000000000000000e+00  5.1879078520528732e-01 -4.6769157866530582e-02 0.0000000000000000e+00  5.8400735165730622e-01 -4.5031869390356034e-02 0.0000000000000000e+00  0.0000000000000000e+00 0.0000000000000000e+00 0.0000000000000000e+00  1.9820538185075433e-02 -4.7725860762218235e-02 0.0000000000000000e+00  7.2095312689580235e-02 -8.7847478458524406e-02 0.0000000000000000e+00  1.4130323251651822e-01 -1.0368633106169035e-01 0.0000000000000000e+00  2.1632907165816354e-01 -1.0873035552072820e-01 0.0000000000000000e+00  2.9332551861968126e-01 -1.1149404997566055e-01 0.0000000000000000e+00  3.7189629505406313e-01 -1.1565230868295076e-01 0.0000000000000000e+00  4.5336472117737514e-01 -1.2261298258321088e-01 0.0000000000000000e+00  5.4071114365573236e-01 -1.3207715149847948e-01 0.0000000000000000e+00  6.3223071898710947e-01 -1.3991977827725330e-01 0.0000000000000000e+00  7.2215171322594940e-01 -1.3567937592047030e-01 0.0000000000000000e+00  0.0000000000000000e+00 0.0000000000000000e+00 0.0000000000000000e+00  2.0243532422774099e-02 -8.9081231687045737e-02 0.0000000000000000e+00  7.4096005559820252e-02 -1.5553972329884844e-01 0.0000000000000000e+00  1.4466584536542157e-01 -1.8176114317601480e-01 0.0000000000000000e+00  2.2032894274849085e-01 -1.9020888430218333e-01 0.0000000000000000e+00  2.9685479916537200e-01 -1.9442799543545994e-01 0.0000000000000000e+00  3.7354506413608146e-01 -2.0028688877290804e-01 0.0000000000000000e+00  4.5228482824966693e-01 -2.0987467075617791e-01 0.0000000000000000e+00  5.3486190410239609e-01 -2.2164261819518460e-01 0.0000000000000000e+00  6.3739888973885028e-01 -2.3275888524449498e-01 0.0000000000000000e+00  7.3515207353554413e-01 -2.4430998726006167e-01 0.0000000000000000e+00  0.0000000000000000e+00 0.0000000000000000e+00 0.0000000000000000e+00  2.0967974569141071e-02 -1.2613849893437354e-01 0.0000000000000000e+00  7.4800382592023415e-02 -2.1459004719758965e-01 0.0000000000000000e+00  1.4504480068209646e-01 -2.4695915775246527e-01 0.0000000000000000e+00  2.2018115592188037e-01 -2.5519160709104277e-01 0.0000000000000000e+00  2.9471448460568206e-01 -2.5647949307279921e-01 0.0000000000000000e+00  3.6557080598314773e-01 -2.5970883186806870e-01 0.0000000000000000e+00  4.3361057869845793e-01 -2.7385216817771418e-01 0.0000000000000000e+00  5.0127729373207364e-01 -3.0331688143601898e-01 0.0000000000000000e+00  5.6093377683975720e-01 -3.4490395345822117e-01 0.0000000000000000e+00  7.4721769157273965e-01 -4.1635072631243786e-01 0.0000000000000000e+00  0.0000000000000000e+00 0.0000000000000000e+00 0.0000000000000000e+00  2.0622957001425295e-02 -1.7222335321831325e-01 0.0000000000000000e+00  7.3043934480829603e-02 -2.9161240004245059e-01 0.0000000000000000e+00  1.4297282596142502e-01 -3.4060854937424062e-01 0.0000000000000000e+00  2.1969439062901405e-01 -3.5595547223341684e-01 0.0000000000000000e+00  2.9385013656359493e-01 -3.5552009829286496e-01 0.0000000000000000e+00  3.5719880697424872e-01 -3.5298905846446671e-01 0.0000000000000000e+00  4.0963584793954788e-01 -3.6124960448016391e-01 0.0000000000000000e+00  4.5733683710456580e-01 -3.8236491342302986e-01 0.0000000000000000e+00  4.6173754380216786e-01 -3.7810151371415440e-01 0.0000000000000000e+00  0.0000000000000000e+00 0.0000000000000000e+00 0.0000000000000000e+00  0.0000000000000000e+00 0.0000000000000000e+00 0.0000000000000000e+00  2.1237396467853088e-02 -2.0342318722180336e-01 0.0000000000000000e+00  7.2069495426975050e-02 -3.3359002992300635e-01 0.0000000000000000e+00  1.4071249983148290e-01 -3.8045293604341029e-01 0.0000000000000000e+00  2.1922096957937229e-01 -3.8897487319995738e-01 0.0000000000000000e+00  2.9365824423467490e-01 -3.7158331321310933e-01 0.0000000000000000e+00  3.4241742197514713e-01 -3.4129353474575969e-01 0.0000000000000000e+00  3.6494060923224569e-01 -3.3798464739719791e-01 0.0000000000000000e+00  3.8654640848901811e-01 -3.8474331181836902e-01 0.0000000000000000e+00  4.0703304486205771e-01 -4.2331300255315474e-01 0.0000000000000000e+00  0.0000000000000000e+00 0.0000000000000000e+00 0.0000000000000000e+00  0.0000000000000000e+00 0.0000000000000000e+00 0.0000000000000000e+00  1.8580601948241147e-02 -2.4960527994116333e-01 0.0000000000000000e+00  5.9060402391750172e-02 -4.1736976006479387e-01 0.0000000000000000e+00  1.2146865805200313e-01 -5.0959781054480180e-01 0.0000000000000000e+00  2.0468612315517565e-01 -5.5529355029612759e-01 0.0000000000000000e+00  2.7281201411877609e-01 -5.1873857481926633e-01 0.0000000000000000e+00  2.8592245736622529e-01 -4.5049579262488737e-01 0.0000000000000000e+00  2.7900324060333737e-01 -4.5097959134942905e-01 0.0000000000000000e+00  2.8999343475112366e-01 -4.7824222682178374e-01 0.0000000000000000e+00  3.0615044181567586e-01 -4.8566466233176858e-01 0.0000000000000000e+00  0.0000000000000000e+00 0.0000000000000000e+00 0.0000000000000000e+00  0.0000000000000000e+00 0.0000000000000000e+00 0.0000000000000000e+00  1.6074551555629684e-02 -2.7022075917169974e-01 0.0000000000000000e+00  5.1747778411139513e-02 -4.3499622042495251e-01 0.0000000000000000e+00  1.1073161852474757e-01 -5.1377128447201159e-01 0.0000000000000000e+00  1.8033310318810533e-01 -5.2201845833024918e-01 0.0000000000000000e+00  2.1610408032745082e-01 -3.7935602263107393e-01 0.0000000000000000e+00  1.9609575351638517e-01 -2.5330750526085316e-01 0.0000000000000000e+00  1.6830116146518878e-01 -2.4730384094921787e-01 0.0000000000000000e+00  1.3435741996977693e-01 -3.2664211946561006e-01 0.0000000000000000e+00  9.6809824848933732e-02 -4.2116281143779277e-01 0.0000000000000000e+00  0.0000000000000000e+00 0.0000000000000000e+00 0.0000000000000000e+00  0.0000000000000000e+00 0.0000000000000000e+00 0.0000000000000000e+00  1.1837728993971508e-02 -3.0296801170402010e-01 0.0000000000000000e+00  3.1789217126703351e-02 -4.9527300526683710e-01 0.0000000000000000e+00  5.6693778255502508e-02 -6.3450079949816585e-01 0.0000000000000000e+00  8.5260349087338400e-02 -7.3312224466308551e-01 0.0000000000000000e+00  9.9896050548511042e-02 -6.0081327018452202e-01 0.0000000000000000e+00  4.5007337655008986e-02 -5.2387502120117668e-01 0.0000000000000000e+00  4.0972550332906664e-02 -5.7585901249542459e-01 0.0000000000000000e+00  1.5698645569019253e-02 -6.0294090278558365e-01 0.0000000000000000e+00  -2.0385392978138170e-02 -4.9897606652643195e-01 0.0000000000000000e+00  0.0000000000000000e+00 0.0000000000000000e+00 0.0000000000000000e+00  0.0000000000000000e+00 0.0000000000000000e+00 0.0000000000000000e+00  8.2442541647843592e-03 -3.1105269577459976e-01 0.0000000000000000e+00  2.0108531198885882e-02 -4.8839614784065194e-01 0.0000000000000000e+00  3.2659311733405465e-02 -6.0463711602465353e-01 0.0000000000000000e+00  3.7768415489346514e-02 -6.3751213201240953e-01 0.0000000000000000e+00  0.0000000000000000e+00 0.0000000000000000e+00 0.0000000000000000e+00  0.0000000000000000e+00 0.0000000000000000e+00 0.0000000000000000e+00  0.0000000000000000e+00 0.0000000000000000e+00 0.0000000000000000e+00  0.0000000000000000e+00 0.0000000000000000e+00 0.0000000000000000e+00  0.0000000000000000e+00 0.0000000000000000e+00 0.0000000000000000e+00  0.0000000000000000e+00 0.0000000000000000e+00 0.0000000000000000e+00  </DataArray> 
</PointData> 
</Piece>
</UnstructuredGrid>
</VTKFile>