<?xml version="1.0"?>
<VTKFile type="UnstructuredGrid"  version="0.1"  >
<UnstructuredGrid>
<Piece  NumberOfPoints="121" NumberOfCells="200">
<Points>
<DataArray  type="Float64"  NumberOfComponents="3"  format="ascii">0 0 0  0.1 0 0  0.2 0 0  0.3 0 0  0.4 0 0  0.5 0 0  0.6 0 0  0.7 0 0  0.8 0 0  0.9 0 0  1 0 0  0 0.1 0  0.1 0.1 0  0.2 0.1 0  0.3 0.1 0  0.4 0.1 0  0.5 0.1 0  0.6 0.1 0  0.7 0.1 0  0.8 0.1 0  0.9 0.1 0  1 0.1 0  0 0.2 0  0.1 0.2 0  0.2 0.2 0  0.3 0.2 0  0.4 0.2 0  0.5 0.2 0  0.6 0.2 0  0.7 0.2 0  0.8 0.2 0  0.9 0.2 0  1 0.2 0  0 0.3 0  0.1 0.3 0  0.2 0.3 0  0.3 0.3 0  0.4 0.3 0  0.5 0.3 0  0.6 0.3 0  0.7 0.3 0  0.8 0.3 0  0.9 0.3 0  1 0.3 0  0 0.4 0  0.1 0.4 0  0.2 0.4 0  0.3 0.4 0  0.4 0.4 0  0.5 0.4 0  0.6 0.4 0  0.7 0.4 0  0.8 0.4 0  0.9 0.4 0  1 0.4 0  0 0.5 0  0.1 0.5 0  0.2 0.5 0  0.3 0.5 0  0.4 0.5 0  0.5 0.5 0  0.6 0.5 0  0.7 0.5 0  0.8 0.5 0  0.9 0.5 0  1 0.5 0  0 0.6 0  0.1 0.6 0  0.2 0.6 0  0.3 0.6 0  0.4 0.6 0  0.5 0.6 0  0.6 0.6 0  0.7 0.6 0  0.8 0.6 0  0.9 0.6 0  1 0.6 0  0 0.7 0  0.1 0.7 0  0.2 0.7 0  0.3 0.7 0  0.4 0.7 0  0.5 0.7 0  0.6 0.7 0  0.7 0.7 0  0.8 0.7 0  0.9 0.7 0  1 0.7 0  0 0.8 0  0.1 0.8 0  0.2 0.8 0  0.3 0.8 0  0.4 0.8 0  0.5 0.8 0  0.6 0.8 0  0.7 0.8 0  0.8 0.8 0  0.9 0.8 0  1 0.8 0  0 0.9 0  0.1 0.9 0  0.2 0.9 0  0.3 0.9 0  0.4 0.9 0  0.5 0.9 0  0.6 0.9 0  0.7 0.9 0  0.8 0.9 0  0.9 0.9 0  1 0.9 0  0 1 0  0.1 1 0  0.2 1 0  0.3 1 0  0.4 1 0  0.5 1 0  0.6 1 0  0.7 1 0  0.8 1 0  0.9 1 0  1 1 0  </DataArray>
</Points>
<Cells>
<DataArray  type="UInt32"  Name="connectivity"  format="ascii">0 1 12  0 11 12  1 2 13  1 12 13  2 3 14  2 13 14  3 4 15  3 14 15  4 5 16  4 15 16  5 6 17  5 16 17  6 7 18  6 17 18  7 8 19  7 18 19  8 9 20  8 19 20  9 10 21  9 20 21  11 12 23  11 22 23  12 13 24  12 23 24  13 14 25  13 24 25  14 15 26  14 25 26  15 16 27  15 26 27  16 17 28  16 27 28  17 18 29  17 28 29  18 19 30  18 29 30  19 20 31  19 30 31  20 21 32  20 31 32  22 23 34  22 33 34  23 24 35  23 34 35  24 25 36  24 35 36  25 26 37  25 36 37  26 27 38  26 37 38  27 28 39  27 38 39  28 29 40  28 39 40  29 30 41  29 40 41  30 31 42  30 41 42  31 32 43  31 42 43  33 34 45  33 44 45  34 35 46  34 45 46  35 36 47  35 46 47  36 37 48  36 47 48  37 38 49  37 48 49  38 39 50  38 49 50  39 40 51  39 50 51  40 41 52  40 51 52  41 42 53  41 52 53  42 43 54  42 53 54  44 45 56  44 55 56  45 46 57  45 56 57  46 47 58  46 57 58  47 48 59  47 58 59  48 49 60  48 59 60  49 50 61  49 60 61  50 51 62  50 61 62  51 52 63  51 62 63  52 53 64  52 63 64  53 54 65  53 64 65  55 56 67  55 66 67  56 57 68  56 67 68  57 58 69  57 68 69  58 59 70  58 69 70  59 60 71  59 70 71  60 61 72  60 71 72  61 62 73  61 72 73  62 63 74  62 73 74  63 64 75  63 74 75  64 65 76  64 75 76  66 67 78  66 77 78  67 68 79  67 78 79  68 69 80  68 79 80  69 70 81  69 80 81  70 71 82  70 81 82  71 72 83  71 82 83  72 73 84  72 83 84  73 74 85  73 84 85  74 75 86  74 85 86  75 76 87  75 86 87  77 78 89  77 88 89  78 79 90  78 89 90  79 80 91  79 90 91  80 81 92  80 91 92  81 82 93  81 92 93  82 83 94  82 93 94  83 84 95  83 94 95  84 85 96  84 95 96  85 86 97  85 96 97  86 87 98  86 97 98  88 89 100  88 99 100  89 90 101  89 100 101  90 91 102  90 101 102  91 92 103  91 102 103  92 93 104  92 103 104  93 94 105  93 104 105  94 95 106  94 105 106  95 96 107  95 106 107  96 97 108  96 107 108  97 98 109  97 108 109  99 100 111  99 110 111  100 101 112  100 111 112  101 102 113  101 112 113  102 103 114  102 113 114  103 104 115  103 114 115  104 105 116  104 115 116  105 106 117  105 116 117  106 107 118  106 117 118  107 108 119  107 118 119  108 109 120  108 119 120  </DataArray>
<DataArray  type="UInt32"  Name="offsets"  format="ascii">3 6 9 12 15 18 21 24 27 30 33 36 39 42 45 48 51 54 57 60 63 66 69 72 75 78 81 84 87 90 93 96 99 102 105 108 111 114 117 120 123 126 129 132 135 138 141 144 147 150 153 156 159 162 165 168 171 174 177 180 183 186 189 192 195 198 201 204 207 210 213 216 219 222 225 228 231 234 237 240 243 246 249 252 255 258 261 264 267 270 273 276 279 282 285 288 291 294 297 300 303 306 309 312 315 318 321 324 327 330 333 336 339 342 345 348 351 354 357 360 363 366 369 372 375 378 381 384 387 390 393 396 399 402 405 408 411 414 417 420 423 426 429 432 435 438 441 444 447 450 453 456 459 462 465 468 471 474 477 480 483 486 489 492 495 498 501 504 507 510 513 516 519 522 525 528 531 534 537 540 543 546 549 552 555 558 561 564 567 570 573 576 579 582 585 588 591 594 597 600 </DataArray>
<DataArray  type="UInt8"  Name="types"  format="ascii">5 5 5 5 5 5 5 5 5 5 5 5 5 5 5 5 5 5 5 5 5 5 5 5 5 5 5 5 5 5 5 5 5 5 5 5 5 5 5 5 5 5 5 5 5 5 5 5 5 5 5 5 5 5 5 5 5 5 5 5 5 5 5 5 5 5 5 5 5 5 5 5 5 5 5 5 5 5 5 5 5 5 5 5 5 5 5 5 5 5 5 5 5 5 5 5 5 5 5 5 5 5 5 5 5 5 5 5 5 5 5 5 5 5 5 5 5 5 5 5 5 5 5 5 5 5 5 5 5 5 5 5 5 5 5 5 5 5 5 5 5 5 5 5 5 5 5 5 5 5 5 5 5 5 5 5 5 5 5 5 5 5 5 5 5 5 5 5 5 5 5 5 5 5 5 5 5 5 5 5 5 5 5 5 5 5 5 5 5 5 5 5 5 5 5 5 5 5 5 5 </DataArray>
</Cells>
<PointData  Vectors="f_47"> 
<DataArray  type="Float64"  Name="f_47"  NumberOfComponents="3" format="ascii">0.0000000000000000e+00 0.0000000000000000e+00 0.0000000000000000e+00  0.0000000000000000e+00 0.0000000000000000e+00 0.0000000000000000e+00  0.0000000000000000e+00 0.0000000000000000e+00 0.0000000000000000e+00  0.0000000000000000e+00 0.0000000000000000e+00 0.0000000000000000e+00  0.0000000000000000e+00 0.0000000000000000e+00 0.0000000000000000e+00  0.0000000000000000e+00 0.0000000000000000e+00 0.0000000000000000e+00  0.0000000000000000e+00 0.0000000000000000e+00 0.0000000000000000e+00  0.0000000000000000e+00 0.0000000000000000e+00 0.0000000000000000e+00  0.0000000000000000e+00 0.0000000000000000e+00 0.0000000000000000e+00  0.0000000000000000e+00 0.0000000000000000e+00 0.0000000000000000e+00  0.0000000000000000e+00 0.0000000000000000e+00 0.0000000000000000e+00  0.0000000000000000e+00 0.0000000000000000e+00 0.0000000000000000e+00  8.8583242621047928e-02 -1.0495791166046374e-01 0.0000000000000000e+00  2.8161956151929884e-01 -1.6744904328123247e-01 0.0000000000000000e+00  5.1822361365764236e-01 -1.8934542988781622e-01 0.0000000000000000e+00  7.6639003368700453e-01 -1.9881361736287020e-01 0.0000000000000000e+00  1.0277049318597771e+00 -2.1232621908760002e-01 0.0000000000000000e+00  1.3272588906033265e+00 -2.5071325081882556e-01 0.0000000000000000e+00  1.6522791530463123e+00 -2.9134707050642294e-01 0.0000000000000000e+00  1.9730192821028529e+00 -3.0800092382286232e-01 0.0000000000000000e+00  2.3245505403016309e+00 -3.0146193231621093e-01 0.0000000000000000e+00  2.6624056318922467e+00 -2.5044313346319041e-01 0.0000000000000000e+00  0.0000000000000000e+00 0.0000000000000000e+00 0.0000000000000000e+00  9.9095212646664835e-02 -2.3776674296765368e-01 0.0000000000000000e+00  2.9789950469688747e-01 -3.5502150977753683e-01 0.0000000000000000e+00  5.4468081600030416e-01 -3.8076541604971764e-01 0.0000000000000000e+00  7.9814517850476330e-01 -3.8155538918939103e-01 0.0000000000000000e+00  1.0479734465860107e+00 -3.7519095970255756e-01 0.0000000000000000e+00  1.3192659872640513e+00 -3.8887455984953972e-01 0.0000000000000000e+00  1.6805606055422413e+00 -4.7603594513371550e-01 0.0000000000000000e+00  2.0711079432845270e+00 -6.0280931025068751e-01 0.0000000000000000e+00  2.4496720423300733e+00 -6.9876540309173718e-01 0.0000000000000000e+00  2.9272528137710578e+00 -6.4893435326526583e-01 0.0000000000000000e+00  0.0000000000000000e+00 0.0000000000000000e+00 0.0000000000000000e+00  8.5508519291567830e-02 -4.8938275950035665e-01 0.0000000000000000e+00  2.8551366082401619e-01 -7.2778059172016274e-01 0.0000000000000000e+00  5.2568455226406785e-01 -8.1856730412932899e-01 0.0000000000000000e+00  7.6981616645876172e-01 -8.6924084953037339e-01 0.0000000000000000e+00  1.0025375136156114e+00 -9.0822926800942727e-01 0.0000000000000000e+00  1.2156403116024368e+00 -9.4571795490101884e-01 0.0000000000000000e+00  1.4780001539096939e+00 -1.0164893235688874e+00 0.0000000000000000e+00  2.0081927791884384e+00 -1.1958858215660186e+00 0.0000000000000000e+00  2.4385383304645751e+00 -1.2181215202424382e+00 0.0000000000000000e+00  3.1693999647138313e+00 -1.0945410756547691e+00 0.0000000000000000e+00  0.0000000000000000e+00 0.0000000000000000e+00 0.0000000000000000e+00  1.1338964738418522e-01 -4.9287202001329145e-01 0.0000000000000000e+00  2.9856907580694692e-01 -7.0818359877809034e-01 0.0000000000000000e+00  5.2326933376198626e-01 -7.2666100499674058e-01 0.0000000000000000e+00  7.5102170280388258e-01 -7.1753749518408549e-01 0.0000000000000000e+00  9.7326678585310200e-01 -7.2409426953332534e-01 0.0000000000000000e+00  1.1597862990064092e+00 -7.3628918720384706e-01 0.0000000000000000e+00  1.2640654105095892e+00 -7.3778472270480833e-01 0.0000000000000000e+00  1.2062811487113507e+00 -7.3959326969925121e-01 0.0000000000000000e+00  1.9402014696918397e+00 -1.1925103407091711e+00 0.0000000000000000e+00  2.7706755676525002e-01 -3.0341140117307117e+00 0.0000000000000000e+00  0.0000000000000000e+00 0.0000000000000000e+00 0.0000000000000000e+00  6.7726516539373505e-02 -8.9265596797558389e-01 0.0000000000000000e+00  2.5575708419100257e-01 -1.2647580878166087e+00 0.0000000000000000e+00  4.7253639903642702e-01 -1.4301935399469032e+00 0.0000000000000000e+00  7.0403701011743558e-01 -1.5316929134525479e+00 0.0000000000000000e+00  9.3633787209007424e-01 -1.5759143231098751e+00 0.0000000000000000e+00  1.1071075154174896e+00 -1.5771417609110765e+00 0.0000000000000000e+00  1.1880482404513077e+00 -1.5990971768545530e+00 0.0000000000000000e+00  1.2847719071125789e+00 -1.2933471894678126e+00 0.0000000000000000e+00  -4.3208734714127728e-01 -4.4783087936517835e-01 0.0000000000000000e+00  0.0000000000000000e+00 0.0000000000000000e+00 0.0000000000000000e+00  0.0000000000000000e+00 0.0000000000000000e+00 0.0000000000000000e+00  1.3883376501271988e-01 -7.7200648414241180e-01 0.0000000000000000e+00  3.0365575510935311e-01 -1.0530890728921094e+00 0.0000000000000000e+00  4.9214377564863926e-01 -1.0442458868506033e+00 0.0000000000000000e+00  6.8581579157244088e-01 -1.0053173519818059e+00 0.0000000000000000e+00  8.9849844902326503e-01 -9.6276606448562463e-01 0.0000000000000000e+00  1.0309718679916433e+00 -7.9600577241182335e-01 0.0000000000000000e+00  1.0271025872335611e+00 -7.0482809329388441e-01 0.0000000000000000e+00  7.8878129181984658e-01 -9.2076358503613531e-01 0.0000000000000000e+00  4.3259132681274648e-01 -2.1864365499629561e+00 0.0000000000000000e+00  0.0000000000000000e+00 0.0000000000000000e+00 0.0000000000000000e+00  0.0000000000000000e+00 0.0000000000000000e+00 0.0000000000000000e+00  4.2461147311624085e-02 -1.1881512116978774e+00 0.0000000000000000e+00  1.5388475948038050e-01 -1.6204058804244563e+00 0.0000000000000000e+00  3.5055680198446681e-01 -1.9590986257427618e+00 0.0000000000000000e+00  5.4054122687525952e-01 -2.1846616130668499e+00 0.0000000000000000e+00  6.9069797466924687e-01 -2.0836742171014939e+00 0.0000000000000000e+00  5.9874681767139160e-01 -1.8790444309687422e+00 0.0000000000000000e+00  5.3213988797921152e-01 -2.0831744658545719e+00 0.0000000000000000e+00  1.0281636175513253e+00 -2.0420611794715788e+00 0.0000000000000000e+00  -9.6674767092662108e+00 -8.5822341316912496e+00 0.0000000000000000e+00  0.0000000000000000e+00 0.0000000000000000e+00 0.0000000000000000e+00  0.0000000000000000e+00 0.0000000000000000e+00 0.0000000000000000e+00  9.4324599691022526e-02 -1.1002924802108789e+00 0.0000000000000000e+00  2.1149899575521469e-01 -1.3818856989160611e+00 0.0000000000000000e+00  3.7106325287713926e-01 -1.3804354007690622e+00 0.0000000000000000e+00  2.4312947252781086e-01 -1.1988662528220992e+00 0.0000000000000000e+00  4.3668500475768823e-01 -5.2526115031552567e-01 0.0000000000000000e+00  4.8737618105479136e-01 -1.8274028079840041e-01 0.0000000000000000e+00  4.7294778166661444e-01 -1.6706105977120220e-01 0.0000000000000000e+00  2.2639307895315353e-01 -5.0881786928102646e-01 0.0000000000000000e+00  4.7247607627014867e+00 2.2302080911663058e+00 0.0000000000000000e+00  0.0000000000000000e+00 0.0000000000000000e+00 0.0000000000000000e+00  0.0000000000000000e+00 0.0000000000000000e+00 0.0000000000000000e+00  -2.8577607141092989e-02 -1.1919548723403910e+00 0.0000000000000000e+00  -1.1813281073957216e-01 -1.4887171872974505e+00 0.0000000000000000e+00  -4.8724835134617633e-01 -1.9613954487753504e+00 0.0000000000000000e+00  -6.3026478393703023e-01 -2.7193569798274977e+00 0.0000000000000000e+00  1.2164356009353407e-01 -2.5489110677119737e+00 0.0000000000000000e+00  -5.2380296894578189e-02 -2.5432980116668804e+00 0.0000000000000000e+00  6.7006550528775993e-02 -2.7486283926181421e+00 0.0000000000000000e+00  9.0058192836723550e-01 -2.9415070777460310e+00 0.0000000000000000e+00  6.9655363877752086e+00 -7.6821917600780809e-01 0.0000000000000000e+00  0.0000000000000000e+00 0.0000000000000000e+00 0.0000000000000000e+00  0.0000000000000000e+00 0.0000000000000000e+00 0.0000000000000000e+00  -4.8861224180299423e-02 -1.1760364655228506e+00 0.0000000000000000e+00  -1.6203761004507036e-01 -1.3780471573939375e+00 0.0000000000000000e+00  -7.0066864760996350e-01 -1.5420795680113319e+00 0.0000000000000000e+00  -9.4475847232769927e-01 -1.7877773116195388e+00 0.0000000000000000e+00  0.0000000000000000e+00 0.0000000000000000e+00 0.0000000000000000e+00  0.0000000000000000e+00 0.0000000000000000e+00 0.0000000000000000e+00  0.0000000000000000e+00 0.0000000000000000e+00 0.0000000000000000e+00  0.0000000000000000e+00 0.0000000000000000e+00 0.0000000000000000e+00  0.0000000000000000e+00 0.0000000000000000e+00 0.0000000000000000e+00  0.0000000000000000e+00 0.0000000000000000e+00 0.0000000000000000e+00  </DataArray> 
</PointData> 
</Piece>
</UnstructuredGrid>
</VTKFile>