<?xml version="1.0"?>
<VTKFile type="UnstructuredGrid"  version="0.1"  >
<UnstructuredGrid>
<Piece  NumberOfPoints="121" NumberOfCells="200">
<Points>
<DataArray  type="Float64"  NumberOfComponents="3"  format="ascii">0 0 0  0.1 0 0  0.2 0 0  0.3 0 0  0.4 0 0  0.5 0 0  0.6 0 0  0.7 0 0  0.8 0 0  0.9 0 0  1 0 0  0 0.1 0  0.1 0.1 0  0.2 0.1 0  0.3 0.1 0  0.4 0.1 0  0.5 0.1 0  0.6 0.1 0  0.7 0.1 0  0.8 0.1 0  0.9 0.1 0  1 0.1 0  0 0.2 0  0.1 0.2 0  0.2 0.2 0  0.3 0.2 0  0.4 0.2 0  0.5 0.2 0  0.6 0.2 0  0.7 0.2 0  0.8 0.2 0  0.9 0.2 0  1 0.2 0  0 0.3 0  0.1 0.3 0  0.2 0.3 0  0.3 0.3 0  0.4 0.3 0  0.5 0.3 0  0.6 0.3 0  0.7 0.3 0  0.8 0.3 0  0.9 0.3 0  1 0.3 0  0 0.4 0  0.1 0.4 0  0.2 0.4 0  0.3 0.4 0  0.4 0.4 0  0.5 0.4 0  0.6 0.4 0  0.7 0.4 0  0.8 0.4 0  0.9 0.4 0  1 0.4 0  0 0.5 0  0.1 0.5 0  0.2 0.5 0  0.3 0.5 0  0.4 0.5 0  0.5 0.5 0  0.6 0.5 0  0.7 0.5 0  0.8 0.5 0  0.9 0.5 0  1 0.5 0  0 0.6 0  0.1 0.6 0  0.2 0.6 0  0.3 0.6 0  0.4 0.6 0  0.5 0.6 0  0.6 0.6 0  0.7 0.6 0  0.8 0.6 0  0.9 0.6 0  1 0.6 0  0 0.7 0  0.1 0.7 0  0.2 0.7 0  0.3 0.7 0  0.4 0.7 0  0.5 0.7 0  0.6 0.7 0  0.7 0.7 0  0.8 0.7 0  0.9 0.7 0  1 0.7 0  0 0.8 0  0.1 0.8 0  0.2 0.8 0  0.3 0.8 0  0.4 0.8 0  0.5 0.8 0  0.6 0.8 0  0.7 0.8 0  0.8 0.8 0  0.9 0.8 0  1 0.8 0  0 0.9 0  0.1 0.9 0  0.2 0.9 0  0.3 0.9 0  0.4 0.9 0  0.5 0.9 0  0.6 0.9 0  0.7 0.9 0  0.8 0.9 0  0.9 0.9 0  1 0.9 0  0 1 0  0.1 1 0  0.2 1 0  0.3 1 0  0.4 1 0  0.5 1 0  0.6 1 0  0.7 1 0  0.8 1 0  0.9 1 0  1 1 0  </DataArray>
</Points>
<Cells>
<DataArray  type="UInt32"  Name="connectivity"  format="ascii">0 1 12  0 11 12  1 2 13  1 12 13  2 3 14  2 13 14  3 4 15  3 14 15  4 5 16  4 15 16  5 6 17  5 16 17  6 7 18  6 17 18  7 8 19  7 18 19  8 9 20  8 19 20  9 10 21  9 20 21  11 12 23  11 22 23  12 13 24  12 23 24  13 14 25  13 24 25  14 15 26  14 25 26  15 16 27  15 26 27  16 17 28  16 27 28  17 18 29  17 28 29  18 19 30  18 29 30  19 20 31  19 30 31  20 21 32  20 31 32  22 23 34  22 33 34  23 24 35  23 34 35  24 25 36  24 35 36  25 26 37  25 36 37  26 27 38  26 37 38  27 28 39  27 38 39  28 29 40  28 39 40  29 30 41  29 40 41  30 31 42  30 41 42  31 32 43  31 42 43  33 34 45  33 44 45  34 35 46  34 45 46  35 36 47  35 46 47  36 37 48  36 47 48  37 38 49  37 48 49  38 39 50  38 49 50  39 40 51  39 50 51  40 41 52  40 51 52  41 42 53  41 52 53  42 43 54  42 53 54  44 45 56  44 55 56  45 46 57  45 56 57  46 47 58  46 57 58  47 48 59  47 58 59  48 49 60  48 59 60  49 50 61  49 60 61  50 51 62  50 61 62  51 52 63  51 62 63  52 53 64  52 63 64  53 54 65  53 64 65  55 56 67  55 66 67  56 57 68  56 67 68  57 58 69  57 68 69  58 59 70  58 69 70  59 60 71  59 70 71  60 61 72  60 71 72  61 62 73  61 72 73  62 63 74  62 73 74  63 64 75  63 74 75  64 65 76  64 75 76  66 67 78  66 77 78  67 68 79  67 78 79  68 69 80  68 79 80  69 70 81  69 80 81  70 71 82  70 81 82  71 72 83  71 82 83  72 73 84  72 83 84  73 74 85  73 84 85  74 75 86  74 85 86  75 76 87  75 86 87  77 78 89  77 88 89  78 79 90  78 89 90  79 80 91  79 90 91  80 81 92  80 91 92  81 82 93  81 92 93  82 83 94  82 93 94  83 84 95  83 94 95  84 85 96  84 95 96  85 86 97  85 96 97  86 87 98  86 97 98  88 89 100  88 99 100  89 90 101  89 100 101  90 91 102  90 101 102  91 92 103  91 102 103  92 93 104  92 103 104  93 94 105  93 104 105  94 95 106  94 105 106  95 96 107  95 106 107  96 97 108  96 107 108  97 98 109  97 108 109  99 100 111  99 110 111  100 101 112  100 111 112  101 102 113  101 112 113  102 103 114  102 113 114  103 104 115  103 114 115  104 105 116  104 115 116  105 106 117  105 116 117  106 107 118  106 117 118  107 108 119  107 118 119  108 109 120  108 119 120  </DataArray>
<DataArray  type="UInt32"  Name="offsets"  format="ascii">3 6 9 12 15 18 21 24 27 30 33 36 39 42 45 48 51 54 57 60 63 66 69 72 75 78 81 84 87 90 93 96 99 102 105 108 111 114 117 120 123 126 129 132 135 138 141 144 147 150 153 156 159 162 165 168 171 174 177 180 183 186 189 192 195 198 201 204 207 210 213 216 219 222 225 228 231 234 237 240 243 246 249 252 255 258 261 264 267 270 273 276 279 282 285 288 291 294 297 300 303 306 309 312 315 318 321 324 327 330 333 336 339 342 345 348 351 354 357 360 363 366 369 372 375 378 381 384 387 390 393 396 399 402 405 408 411 414 417 420 423 426 429 432 435 438 441 444 447 450 453 456 459 462 465 468 471 474 477 480 483 486 489 492 495 498 501 504 507 510 513 516 519 522 525 528 531 534 537 540 543 546 549 552 555 558 561 564 567 570 573 576 579 582 585 588 591 594 597 600 </DataArray>
<DataArray  type="UInt8"  Name="types"  format="ascii">5 5 5 5 5 5 5 5 5 5 5 5 5 5 5 5 5 5 5 5 5 5 5 5 5 5 5 5 5 5 5 5 5 5 5 5 5 5 5 5 5 5 5 5 5 5 5 5 5 5 5 5 5 5 5 5 5 5 5 5 5 5 5 5 5 5 5 5 5 5 5 5 5 5 5 5 5 5 5 5 5 5 5 5 5 5 5 5 5 5 5 5 5 5 5 5 5 5 5 5 5 5 5 5 5 5 5 5 5 5 5 5 5 5 5 5 5 5 5 5 5 5 5 5 5 5 5 5 5 5 5 5 5 5 5 5 5 5 5 5 5 5 5 5 5 5 5 5 5 5 5 5 5 5 5 5 5 5 5 5 5 5 5 5 5 5 5 5 5 5 5 5 5 5 5 5 5 5 5 5 5 5 5 5 5 5 5 5 5 5 5 5 5 5 5 5 5 5 5 5 </DataArray>
</Cells>
<PointData  Vectors="f_22"> 
<DataArray  type="Float64"  Name="f_22"  NumberOfComponents="3" format="ascii">0.0000000000000000e+00 0.0000000000000000e+00 0.0000000000000000e+00  0.0000000000000000e+00 0.0000000000000000e+00 0.0000000000000000e+00  0.0000000000000000e+00 0.0000000000000000e+00 0.0000000000000000e+00  0.0000000000000000e+00 0.0000000000000000e+00 0.0000000000000000e+00  0.0000000000000000e+00 0.0000000000000000e+00 0.0000000000000000e+00  0.0000000000000000e+00 0.0000000000000000e+00 0.0000000000000000e+00  0.0000000000000000e+00 0.0000000000000000e+00 0.0000000000000000e+00  0.0000000000000000e+00 0.0000000000000000e+00 0.0000000000000000e+00  0.0000000000000000e+00 0.0000000000000000e+00 0.0000000000000000e+00  0.0000000000000000e+00 0.0000000000000000e+00 0.0000000000000000e+00  0.0000000000000000e+00 0.0000000000000000e+00 0.0000000000000000e+00  0.0000000000000000e+00 0.0000000000000000e+00 0.0000000000000000e+00  -3.8299308086010165e-03 3.4900462281121387e-03 0.0000000000000000e+00  -1.7489811950987637e-02 6.4760222211945702e-03 0.0000000000000000e+00  -2.9556014962014543e-02 3.5227368368330792e-03 0.0000000000000000e+00  -3.5614094313291711e-02 1.0966449774789759e-03 0.0000000000000000e+00  -3.8671138471159938e-02 -2.9611013486913949e-04 0.0000000000000000e+00  -3.7805027416582121e-02 -2.0759929255769354e-03 0.0000000000000000e+00  -3.2325313365472570e-02 -6.6742221289164561e-03 0.0000000000000000e+00  -1.5186997201380332e-02 -1.7143000584278093e-02 0.0000000000000000e+00  2.5245809946892291e-02 -3.1732369941901248e-02 0.0000000000000000e+00  5.5892707964155637e-02 -4.6513305818058431e-02 0.0000000000000000e+00  0.0000000000000000e+00 0.0000000000000000e+00 0.0000000000000000e+00  -9.5116514863966030e-03 1.9260289966061071e-02 0.0000000000000000e+00  -3.0009467352902715e-02 2.3926652842508871e-02 0.0000000000000000e+00  -4.5219261734580019e-02 1.3612742301804148e-02 0.0000000000000000e+00  -5.0929706884086254e-02 5.1464358487591996e-03 0.0000000000000000e+00  -5.3826761557993423e-02 2.9206538390622445e-04 0.0000000000000000e+00  -5.0458791745504043e-02 -4.3870771661239198e-03 0.0000000000000000e+00  -5.1586796510893401e-02 -1.6539699538360458e-02 0.0000000000000000e+00  -3.9640606865106592e-02 -3.8571294677154533e-02 0.0000000000000000e+00  -3.0858486610860231e-02 -6.6040450227702774e-02 0.0000000000000000e+00  -2.4485606913076177e-02 -8.7940848608271657e-02 0.0000000000000000e+00  0.0000000000000000e+00 0.0000000000000000e+00 0.0000000000000000e+00  -8.7245461853119616e-03 3.7791902193206550e-02 0.0000000000000000e+00  -2.7317402197698275e-02 4.2246127376932917e-02 0.0000000000000000e+00  -3.9661242338960984e-02 2.2356318968061981e-02 0.0000000000000000e+00  -4.2109363301396932e-02 7.3449562615047976e-03 0.0000000000000000e+00  -4.6071882761179503e-02 1.0678376608412169e-03 0.0000000000000000e+00  -4.4316998331718704e-02 -1.4925440968204453e-03 0.0000000000000000e+00  -7.0139149971495771e-02 -9.6568680653410111e-03 0.0000000000000000e+00  -7.9276297628191966e-02 -2.1572826668053491e-02 0.0000000000000000e+00  -1.5043653816396382e-01 -4.9130426121692217e-02 0.0000000000000000e+00  -1.6985624633663141e-01 -7.7928074042932741e-02 0.0000000000000000e+00  0.0000000000000000e+00 0.0000000000000000e+00 0.0000000000000000e+00  -7.8881381436949633e-03 5.4409441002717142e-02 0.0000000000000000e+00  -2.4544672547691115e-02 5.8019990776763994e-02 0.0000000000000000e+00  -3.5819255945599197e-02 2.8773443152071896e-02 0.0000000000000000e+00  -3.8006715218321267e-02 9.4331629199349374e-03 0.0000000000000000e+00  -4.7972722698561183e-02 5.9691942427490081e-03 0.0000000000000000e+00  -5.0893655591526712e-02 1.2289501801123634e-02 0.0000000000000000e+00  -1.0251001848463370e-01 2.3704738652541645e-02 0.0000000000000000e+00  -1.1540026402193064e-01 3.7049494134328766e-02 0.0000000000000000e+00  -2.5729643723943685e-01 8.2357223719302965e-03 0.0000000000000000e+00  -2.5244772935042947e-01 -2.8021916812018599e-02 0.0000000000000000e+00  0.0000000000000000e+00 0.0000000000000000e+00 0.0000000000000000e+00  -8.9390863869165775e-03 7.0863419433794678e-02 0.0000000000000000e+00  -2.6501402207352344e-02 7.3431407301936355e-02 0.0000000000000000e+00  -4.0172256705258688e-02 3.6259009709694603e-02 0.0000000000000000e+00  -4.6226185999882839e-02 1.5891319208129761e-02 0.0000000000000000e+00  -6.6897903625219704e-02 1.8430970703236776e-02 0.0000000000000000e+00  -7.3741932361729393e-02 3.5448281759125122e-02 0.0000000000000000e+00  -1.3527507482302381e-01 6.3846853540443824e-02 0.0000000000000000e+00  -1.0978541395649220e-01 8.4222881830155000e-02 0.0000000000000000e+00  -2.3457778448791483e-01 5.4179645493819768e-02 0.0000000000000000e+00  0.0000000000000000e+00 0.0000000000000000e+00 0.0000000000000000e+00  0.0000000000000000e+00 0.0000000000000000e+00 0.0000000000000000e+00  -1.1851335546555130e-02 9.0068755837193176e-02 0.0000000000000000e+00  -3.3974989263705964e-02 9.2035822108836388e-02 0.0000000000000000e+00  -5.4799524561138499e-02 4.9616022685025601e-02 0.0000000000000000e+00  -7.1577198396838182e-02 3.2099438132943650e-02 0.0000000000000000e+00  -1.0751144916246143e-01 4.1944110330489483e-02 0.0000000000000000e+00  -1.1967652911591986e-01 6.4251161624500827e-02 0.0000000000000000e+00  -1.8025819570331994e-01 8.8830846684205142e-02 0.0000000000000000e+00  -1.1330024704199095e-01 8.9185942109204400e-02 0.0000000000000000e+00  -2.0639177050555668e-01 3.8735754916918413e-02 0.0000000000000000e+00  0.0000000000000000e+00 0.0000000000000000e+00 0.0000000000000000e+00  0.0000000000000000e+00 0.0000000000000000e+00 0.0000000000000000e+00  -1.6151907969533814e-02 1.1492478661970859e-01 0.0000000000000000e+00  -4.7477448952027948e-02 1.1846164502647220e-01 0.0000000000000000e+00  -8.1320085760399868e-02 7.6037933712299305e-02 0.0000000000000000e+00  -1.1934411719834795e-01 6.5944142131056080e-02 0.0000000000000000e+00  -1.7312432342248943e-01 8.0685681700588263e-02 0.0000000000000000e+00  -1.9828820492347143e-01 9.5635095512245694e-02 0.0000000000000000e+00  -2.4628445274013819e-01 9.5052285191197641e-02 0.0000000000000000e+00  -1.5329411007703433e-01 5.5129007510124610e-02 0.0000000000000000e+00  -2.1546112258223471e-01 4.3526183469230050e-03 0.0000000000000000e+00  0.0000000000000000e+00 0.0000000000000000e+00 0.0000000000000000e+00  0.0000000000000000e+00 0.0000000000000000e+00 0.0000000000000000e+00  -2.0416957390523124e-02 1.4711521935268387e-01 0.0000000000000000e+00  -6.4261700825290174e-02 1.5859238486717608e-01 0.0000000000000000e+00  -1.1563851104371931e-01 1.2680890969126551e-01 0.0000000000000000e+00  -1.9185492411607891e-01 1.2483247651595090e-01 0.0000000000000000e+00  -2.6122373684798811e-01 1.3159118475688925e-01 0.0000000000000000e+00  -2.9813319622679979e-01 1.2770893700422345e-01 0.0000000000000000e+00  -3.0766009803239552e-01 8.8265864466462049e-02 0.0000000000000000e+00  -2.1882077535585409e-01 -1.4771239150163972e-02 0.0000000000000000e+00  -1.8303967302734611e-01 -6.1692566810565175e-02 0.0000000000000000e+00  0.0000000000000000e+00 0.0000000000000000e+00 0.0000000000000000e+00  0.0000000000000000e+00 0.0000000000000000e+00 0.0000000000000000e+00  -2.1684033859467679e-02 1.8477461225682884e-01 0.0000000000000000e+00  -7.2509609190815644e-02 2.1574996645482394e-01 0.0000000000000000e+00  -1.4234966838789140e-01 2.0620174210295855e-01 0.0000000000000000e+00  -2.7439340880919288e-01 2.2150034072896785e-01 0.0000000000000000e+00  -3.4609251907654409e-01 2.1035069530335435e-01 0.0000000000000000e+00  -3.6314439311480295e-01 1.4754371850804324e-01 0.0000000000000000e+00  -3.0356293369783854e-01 -1.0876151321106912e-02 0.0000000000000000e+00  -1.9047102979970459e-01 -2.2660206753379344e-01 0.0000000000000000e+00  6.6139960952651443e-03 -2.6572290986560437e-01 0.0000000000000000e+00  0.0000000000000000e+00 0.0000000000000000e+00 0.0000000000000000e+00  0.0000000000000000e+00 0.0000000000000000e+00 0.0000000000000000e+00  -1.8002287591593523e-02 2.1351893125522595e-01 0.0000000000000000e+00  -6.3136520934579651e-02 2.6478887668087769e-01 0.0000000000000000e+00  -1.5884079949617091e-01 2.9523660286923570e-01 0.0000000000000000e+00  -3.1725348261744873e-01 3.3302815461541080e-01 0.0000000000000000e+00  0.0000000000000000e+00 0.0000000000000000e+00 0.0000000000000000e+00  0.0000000000000000e+00 0.0000000000000000e+00 0.0000000000000000e+00  0.0000000000000000e+00 0.0000000000000000e+00 0.0000000000000000e+00  0.0000000000000000e+00 0.0000000000000000e+00 0.0000000000000000e+00  0.0000000000000000e+00 0.0000000000000000e+00 0.0000000000000000e+00  0.0000000000000000e+00 0.0000000000000000e+00 0.0000000000000000e+00  </DataArray> 
</PointData> 
</Piece>
</UnstructuredGrid>
</VTKFile>