<?xml version="1.0"?>
<VTKFile type="UnstructuredGrid"  version="0.1"  >
<UnstructuredGrid>
<Piece  NumberOfPoints="121" NumberOfCells="200">
<Points>
<DataArray  type="Float64"  NumberOfComponents="3"  format="ascii">0 0 0  0.1 0 0  0.2 0 0  0.3 0 0  0.4 0 0  0.5 0 0  0.6 0 0  0.7 0 0  0.8 0 0  0.9 0 0  1 0 0  0 0.1 0  0.1 0.1 0  0.2 0.1 0  0.3 0.1 0  0.4 0.1 0  0.5 0.1 0  0.6 0.1 0  0.7 0.1 0  0.8 0.1 0  0.9 0.1 0  1 0.1 0  0 0.2 0  0.1 0.2 0  0.2 0.2 0  0.3 0.2 0  0.4 0.2 0  0.5 0.2 0  0.6 0.2 0  0.7 0.2 0  0.8 0.2 0  0.9 0.2 0  1 0.2 0  0 0.3 0  0.1 0.3 0  0.2 0.3 0  0.3 0.3 0  0.4 0.3 0  0.5 0.3 0  0.6 0.3 0  0.7 0.3 0  0.8 0.3 0  0.9 0.3 0  1 0.3 0  0 0.4 0  0.1 0.4 0  0.2 0.4 0  0.3 0.4 0  0.4 0.4 0  0.5 0.4 0  0.6 0.4 0  0.7 0.4 0  0.8 0.4 0  0.9 0.4 0  1 0.4 0  0 0.5 0  0.1 0.5 0  0.2 0.5 0  0.3 0.5 0  0.4 0.5 0  0.5 0.5 0  0.6 0.5 0  0.7 0.5 0  0.8 0.5 0  0.9 0.5 0  1 0.5 0  0 0.6 0  0.1 0.6 0  0.2 0.6 0  0.3 0.6 0  0.4 0.6 0  0.5 0.6 0  0.6 0.6 0  0.7 0.6 0  0.8 0.6 0  0.9 0.6 0  1 0.6 0  0 0.7 0  0.1 0.7 0  0.2 0.7 0  0.3 0.7 0  0.4 0.7 0  0.5 0.7 0  0.6 0.7 0  0.7 0.7 0  0.8 0.7 0  0.9 0.7 0  1 0.7 0  0 0.8 0  0.1 0.8 0  0.2 0.8 0  0.3 0.8 0  0.4 0.8 0  0.5 0.8 0  0.6 0.8 0  0.7 0.8 0  0.8 0.8 0  0.9 0.8 0  1 0.8 0  0 0.9 0  0.1 0.9 0  0.2 0.9 0  0.3 0.9 0  0.4 0.9 0  0.5 0.9 0  0.6 0.9 0  0.7 0.9 0  0.8 0.9 0  0.9 0.9 0  1 0.9 0  0 1 0  0.1 1 0  0.2 1 0  0.3 1 0  0.4 1 0  0.5 1 0  0.6 1 0  0.7 1 0  0.8 1 0  0.9 1 0  1 1 0  </DataArray>
</Points>
<Cells>
<DataArray  type="UInt32"  Name="connectivity"  format="ascii">0 1 12  0 11 12  1 2 13  1 12 13  2 3 14  2 13 14  3 4 15  3 14 15  4 5 16  4 15 16  5 6 17  5 16 17  6 7 18  6 17 18  7 8 19  7 18 19  8 9 20  8 19 20  9 10 21  9 20 21  11 12 23  11 22 23  12 13 24  12 23 24  13 14 25  13 24 25  14 15 26  14 25 26  15 16 27  15 26 27  16 17 28  16 27 28  17 18 29  17 28 29  18 19 30  18 29 30  19 20 31  19 30 31  20 21 32  20 31 32  22 23 34  22 33 34  23 24 35  23 34 35  24 25 36  24 35 36  25 26 37  25 36 37  26 27 38  26 37 38  27 28 39  27 38 39  28 29 40  28 39 40  29 30 41  29 40 41  30 31 42  30 41 42  31 32 43  31 42 43  33 34 45  33 44 45  34 35 46  34 45 46  35 36 47  35 46 47  36 37 48  36 47 48  37 38 49  37 48 49  38 39 50  38 49 50  39 40 51  39 50 51  40 41 52  40 51 52  41 42 53  41 52 53  42 43 54  42 53 54  44 45 56  44 55 56  45 46 57  45 56 57  46 47 58  46 57 58  47 48 59  47 58 59  48 49 60  48 59 60  49 50 61  49 60 61  50 51 62  50 61 62  51 52 63  51 62 63  52 53 64  52 63 64  53 54 65  53 64 65  55 56 67  55 66 67  56 57 68  56 67 68  57 58 69  57 68 69  58 59 70  58 69 70  59 60 71  59 70 71  60 61 72  60 71 72  61 62 73  61 72 73  62 63 74  62 73 74  63 64 75  63 74 75  64 65 76  64 75 76  66 67 78  66 77 78  67 68 79  67 78 79  68 69 80  68 79 80  69 70 81  69 80 81  70 71 82  70 81 82  71 72 83  71 82 83  72 73 84  72 83 84  73 74 85  73 84 85  74 75 86  74 85 86  75 76 87  75 86 87  77 78 89  77 88 89  78 79 90  78 89 90  79 80 91  79 90 91  80 81 92  80 91 92  81 82 93  81 92 93  82 83 94  82 93 94  83 84 95  83 94 95  84 85 96  84 95 96  85 86 97  85 96 97  86 87 98  86 97 98  88 89 100  88 99 100  89 90 101  89 100 101  90 91 102  90 101 102  91 92 103  91 102 103  92 93 104  92 103 104  93 94 105  93 104 105  94 95 106  94 105 106  95 96 107  95 106 107  96 97 108  96 107 108  97 98 109  97 108 109  99 100 111  99 110 111  100 101 112  100 111 112  101 102 113  101 112 113  102 103 114  102 113 114  103 104 115  103 114 115  104 105 116  104 115 116  105 106 117  105 116 117  106 107 118  106 117 118  107 108 119  107 118 119  108 109 120  108 119 120  </DataArray>
<DataArray  type="UInt32"  Name="offsets"  format="ascii">3 6 9 12 15 18 21 24 27 30 33 36 39 42 45 48 51 54 57 60 63 66 69 72 75 78 81 84 87 90 93 96 99 102 105 108 111 114 117 120 123 126 129 132 135 138 141 144 147 150 153 156 159 162 165 168 171 174 177 180 183 186 189 192 195 198 201 204 207 210 213 216 219 222 225 228 231 234 237 240 243 246 249 252 255 258 261 264 267 270 273 276 279 282 285 288 291 294 297 300 303 306 309 312 315 318 321 324 327 330 333 336 339 342 345 348 351 354 357 360 363 366 369 372 375 378 381 384 387 390 393 396 399 402 405 408 411 414 417 420 423 426 429 432 435 438 441 444 447 450 453 456 459 462 465 468 471 474 477 480 483 486 489 492 495 498 501 504 507 510 513 516 519 522 525 528 531 534 537 540 543 546 549 552 555 558 561 564 567 570 573 576 579 582 585 588 591 594 597 600 </DataArray>
<DataArray  type="UInt8"  Name="types"  format="ascii">5 5 5 5 5 5 5 5 5 5 5 5 5 5 5 5 5 5 5 5 5 5 5 5 5 5 5 5 5 5 5 5 5 5 5 5 5 5 5 5 5 5 5 5 5 5 5 5 5 5 5 5 5 5 5 5 5 5 5 5 5 5 5 5 5 5 5 5 5 5 5 5 5 5 5 5 5 5 5 5 5 5 5 5 5 5 5 5 5 5 5 5 5 5 5 5 5 5 5 5 5 5 5 5 5 5 5 5 5 5 5 5 5 5 5 5 5 5 5 5 5 5 5 5 5 5 5 5 5 5 5 5 5 5 5 5 5 5 5 5 5 5 5 5 5 5 5 5 5 5 5 5 5 5 5 5 5 5 5 5 5 5 5 5 5 5 5 5 5 5 5 5 5 5 5 5 5 5 5 5 5 5 5 5 5 5 5 5 5 5 5 5 5 5 5 5 5 5 5 5 </DataArray>
</Cells>
<PointData  Vectors="f_22"> 
<DataArray  type="Float64"  Name="f_22"  NumberOfComponents="3" format="ascii">0.0000000000000000e+00 0.0000000000000000e+00 0.0000000000000000e+00  0.0000000000000000e+00 0.0000000000000000e+00 0.0000000000000000e+00  0.0000000000000000e+00 0.0000000000000000e+00 0.0000000000000000e+00  0.0000000000000000e+00 0.0000000000000000e+00 0.0000000000000000e+00  0.0000000000000000e+00 0.0000000000000000e+00 0.0000000000000000e+00  0.0000000000000000e+00 0.0000000000000000e+00 0.0000000000000000e+00  0.0000000000000000e+00 0.0000000000000000e+00 0.0000000000000000e+00  0.0000000000000000e+00 0.0000000000000000e+00 0.0000000000000000e+00  0.0000000000000000e+00 0.0000000000000000e+00 0.0000000000000000e+00  0.0000000000000000e+00 0.0000000000000000e+00 0.0000000000000000e+00  0.0000000000000000e+00 0.0000000000000000e+00 0.0000000000000000e+00  0.0000000000000000e+00 0.0000000000000000e+00 0.0000000000000000e+00  -1.9353659949885436e-02 1.8924808909177200e-02 0.0000000000000000e+00  -5.2225682779837954e-02 1.9329179673600934e-02 0.0000000000000000e+00  -7.8476416525133000e-02 1.4024408649486675e-02 0.0000000000000000e+00  -9.6091390649726119e-02 1.0359227725192524e-02 0.0000000000000000e+00  -1.0863794125972964e-01 7.9329689930020195e-03 0.0000000000000000e+00  -1.1638961234766271e-01 4.9535670436734484e-03 0.0000000000000000e+00  -1.1684503834144490e-01 -1.3275389874349078e-03 0.0000000000000000e+00  -1.0418106377301284e-01 -1.4280458592537001e-02 0.0000000000000000e+00  -5.8010497802093476e-02 -3.4603311683602339e-02 0.0000000000000000e+00  -1.8679987203400170e-02 -5.4144503951685512e-02 0.0000000000000000e+00  0.0000000000000000e+00 0.0000000000000000e+00 0.0000000000000000e+00  -2.3280453109913401e-02 5.3775727235364883e-02 0.0000000000000000e+00  -5.8758196499979987e-02 5.0781290419310836e-02 0.0000000000000000e+00  -8.3104368529940909e-02 3.4165102195261900e-02 0.0000000000000000e+00  -9.5856163790925319e-02 2.2582757939361597e-02 0.0000000000000000e+00  -1.0374087623841215e-01 1.5448649069151128e-02 0.0000000000000000e+00  -1.0565274631535108e-01 8.2576359073190265e-03 0.0000000000000000e+00  -1.0847923653628125e-01 -7.3967243922384764e-03 0.0000000000000000e+00  -9.6578581856568965e-02 -3.6792226576205248e-02 0.0000000000000000e+00  -7.6249227539996772e-02 -7.9948758279468221e-02 0.0000000000000000e+00  -5.9216750616350421e-02 -1.1496008183725523e-01 0.0000000000000000e+00  0.0000000000000000e+00 0.0000000000000000e+00 0.0000000000000000e+00  -2.1037355938043380e-02 8.8307884554943428e-02 0.0000000000000000e+00  -5.2482808844144663e-02 7.9737081473205504e-02 0.0000000000000000e+00  -7.2698061648304432e-02 4.9957245735382114e-02 0.0000000000000000e+00  -8.1675277370711966e-02 3.0464993030059329e-02 0.0000000000000000e+00  -9.0652646664893380e-02 2.1017799172100199e-02 0.0000000000000000e+00  -9.3335070566616163e-02 1.4610866725029432e-02 0.0000000000000000e+00  -1.2140051105758376e-01 -2.0492490344061710e-03 0.0000000000000000e+00  -1.2028847072466436e-01 -2.5285619732060741e-02 0.0000000000000000e+00  -1.9595827218301473e-01 -6.8994882227675733e-02 0.0000000000000000e+00  -2.1755186356733047e-01 -1.1926099169695900e-01 0.0000000000000000e+00  0.0000000000000000e+00 0.0000000000000000e+00 0.0000000000000000e+00  -2.0057835208297650e-02 1.1993665018188766e-01 0.0000000000000000e+00  -4.9438893758567609e-02 1.0542603984202349e-01 0.0000000000000000e+00  -6.8815504253145574e-02 6.3345025627246004e-02 0.0000000000000000e+00  -7.7696898602168593e-02 3.8767063841981968e-02 0.0000000000000000e+00  -9.5408202201563569e-02 3.1906987122319388e-02 0.0000000000000000e+00  -1.0186517511445124e-01 3.2896795429439740e-02 0.0000000000000000e+00  -1.6768318543014057e-01 2.8548892895154287e-02 0.0000000000000000e+00  -1.5404045071946007e-01 3.8432770084138652e-02 0.0000000000000000e+00  -3.7499775057657186e-01 3.5914483644099581e-03 0.0000000000000000e+00  -3.6602749543488816e-01 -5.6828752410292387e-02 0.0000000000000000e+00  0.0000000000000000e+00 0.0000000000000000e+00 0.0000000000000000e+00  -2.0350205867657210e-02 1.5084222367293640e-01 0.0000000000000000e+00  -4.9656123889894696e-02 1.3048917924950237e-01 0.0000000000000000e+00  -7.0946672378606926e-02 7.7845754504825421e-02 0.0000000000000000e+00  -8.3065406032056976e-02 5.2569923712358045e-02 0.0000000000000000e+00  -1.1786208199042643e-01 5.4152060263768328e-02 0.0000000000000000e+00  -1.2697355742129285e-01 6.6805690804952036e-02 0.0000000000000000e+00  -2.3518101617149051e-01 7.7067503778999499e-02 0.0000000000000000e+00  -1.7217120205031447e-01 1.0722968859442782e-01 0.0000000000000000e+00  -4.6018486417362908e-01 9.0033668975430317e-02 0.0000000000000000e+00  0.0000000000000000e+00 0.0000000000000000e+00 0.0000000000000000e+00  0.0000000000000000e+00 0.0000000000000000e+00 0.0000000000000000e+00  -2.1169552204662264e-02 1.8241951893402281e-01 0.0000000000000000e+00  -5.2275507863439194e-02 1.5719627912023881e-01 0.0000000000000000e+00  -7.9245963154792584e-02 9.7595461547550569e-02 0.0000000000000000e+00  -1.0122274439208605e-01 7.8151161682890616e-02 0.0000000000000000e+00  -1.6191985614702542e-01 9.4516315372879786e-02 0.0000000000000000e+00  -1.7363741497662241e-01 1.1860550656160657e-01 0.0000000000000000e+00  -3.3209342893742122e-01 1.3662229863400926e-01 0.0000000000000000e+00  -2.1348411639178816e-01 1.6342041209848754e-01 0.0000000000000000e+00  -5.4024865624992391e-01 9.8816537246036895e-02 0.0000000000000000e+00  0.0000000000000000e+00 0.0000000000000000e+00 0.0000000000000000e+00  0.0000000000000000e+00 0.0000000000000000e+00 0.0000000000000000e+00  -2.1687864437427096e-02 2.1533657342753898e-01 0.0000000000000000e+00  -5.6628091237210972e-02 1.8859978329318933e-01 0.0000000000000000e+00  -9.3770465580695087e-02 1.2946446132740874e-01 0.0000000000000000e+00  -1.3681078587788839e-01 1.2417412989031998e-01 0.0000000000000000e+00  -2.2637697661565459e-01 1.5929852960019203e-01 0.0000000000000000e+00  -2.5102104408551612e-01 1.8938260012013969e-01 0.0000000000000000e+00  -4.5121982733060667e-01 2.1066175177626073e-01 0.0000000000000000e+00  -2.7987310168450774e-01 1.9789592186332233e-01 0.0000000000000000e+00  -6.5759318092333607e-01 8.6460958993653594e-02 0.0000000000000000e+00  0.0000000000000000e+00 0.0000000000000000e+00 0.0000000000000000e+00  0.0000000000000000e+00 0.0000000000000000e+00 0.0000000000000000e+00  -2.0149821362178508e-02 2.4845660167916292e-01 0.0000000000000000e+00  -5.8152109369691972e-02 2.2747878103815131e-01 0.0000000000000000e+00  -1.0652335514089857e-01 1.8217469545729853e-01 0.0000000000000000e+00  -1.8613548296837601e-01 2.0134824225901485e-01 0.0000000000000000e+00  -2.9743391068833230e-01 2.5217862534883551e-01 0.0000000000000000e+00  -3.5852935304784073e-01 2.8325110407348986e-01 0.0000000000000000e+00  -5.5035699932771709e-01 2.9504202863415352e-01 0.0000000000000000e+00  -3.8503655102207734e-01 1.9551478036504966e-01 0.0000000000000000e+00  -7.4248137385739588e-01 5.8020577011848727e-02 0.0000000000000000e+00  0.0000000000000000e+00 0.0000000000000000e+00 0.0000000000000000e+00  0.0000000000000000e+00 0.0000000000000000e+00 0.0000000000000000e+00  -1.4683533323297731e-02 2.7658529920154840e-01 0.0000000000000000e+00  -4.5878005567839497e-02 2.6976998061955698e-01 0.0000000000000000e+00  -9.6328879668946918e-02 2.5514477119792056e-01 0.0000000000000000e+00  -2.1129409855585760e-01 3.0135998068661657e-01 0.0000000000000000e+00  -3.1540712839865248e-01 3.3992870063588054e-01 0.0000000000000000e+00  -4.2621903926366578e-01 3.7349640425412323e-01 0.0000000000000000e+00  -5.8558057215127013e-01 3.5426735629712863e-01 0.0000000000000000e+00  -5.3468307179069208e-01 1.4842528679137959e-01 0.0000000000000000e+00  -7.1889005076003787e-01 3.3897853081687932e-03 0.0000000000000000e+00  0.0000000000000000e+00 0.0000000000000000e+00 0.0000000000000000e+00  0.0000000000000000e+00 0.0000000000000000e+00 0.0000000000000000e+00  -6.5145613413907094e-03 2.8914427737543369e-01 0.0000000000000000e+00  -2.2276754951931325e-02 2.9406600273322298e-01 0.0000000000000000e+00  -6.2860440005917284e-02 3.0889079623254451e-01 0.0000000000000000e+00  -2.0370256285364324e-01 4.7841140599814047e-01 0.0000000000000000e+00  0.0000000000000000e+00 0.0000000000000000e+00 0.0000000000000000e+00  0.0000000000000000e+00 0.0000000000000000e+00 0.0000000000000000e+00  0.0000000000000000e+00 0.0000000000000000e+00 0.0000000000000000e+00  0.0000000000000000e+00 0.0000000000000000e+00 0.0000000000000000e+00  0.0000000000000000e+00 0.0000000000000000e+00 0.0000000000000000e+00  0.0000000000000000e+00 0.0000000000000000e+00 0.0000000000000000e+00  </DataArray> 
</PointData> 
</Piece>
</UnstructuredGrid>
</VTKFile>