<?xml version="1.0"?>
<VTKFile type="UnstructuredGrid"  version="0.1"  >
<UnstructuredGrid>
<Piece  NumberOfPoints="121" NumberOfCells="200">
<Points>
<DataArray  type="Float64"  NumberOfComponents="3"  format="ascii">0 0 0  0.1 0 0  0.2 0 0  0.3 0 0  0.4 0 0  0.5 0 0  0.6 0 0  0.7 0 0  0.8 0 0  0.9 0 0  1 0 0  0 0.1 0  0.1 0.1 0  0.2 0.1 0  0.3 0.1 0  0.4 0.1 0  0.5 0.1 0  0.6 0.1 0  0.7 0.1 0  0.8 0.1 0  0.9 0.1 0  1 0.1 0  0 0.2 0  0.1 0.2 0  0.2 0.2 0  0.3 0.2 0  0.4 0.2 0  0.5 0.2 0  0.6 0.2 0  0.7 0.2 0  0.8 0.2 0  0.9 0.2 0  1 0.2 0  0 0.3 0  0.1 0.3 0  0.2 0.3 0  0.3 0.3 0  0.4 0.3 0  0.5 0.3 0  0.6 0.3 0  0.7 0.3 0  0.8 0.3 0  0.9 0.3 0  1 0.3 0  0 0.4 0  0.1 0.4 0  0.2 0.4 0  0.3 0.4 0  0.4 0.4 0  0.5 0.4 0  0.6 0.4 0  0.7 0.4 0  0.8 0.4 0  0.9 0.4 0  1 0.4 0  0 0.5 0  0.1 0.5 0  0.2 0.5 0  0.3 0.5 0  0.4 0.5 0  0.5 0.5 0  0.6 0.5 0  0.7 0.5 0  0.8 0.5 0  0.9 0.5 0  1 0.5 0  0 0.6 0  0.1 0.6 0  0.2 0.6 0  0.3 0.6 0  0.4 0.6 0  0.5 0.6 0  0.6 0.6 0  0.7 0.6 0  0.8 0.6 0  0.9 0.6 0  1 0.6 0  0 0.7 0  0.1 0.7 0  0.2 0.7 0  0.3 0.7 0  0.4 0.7 0  0.5 0.7 0  0.6 0.7 0  0.7 0.7 0  0.8 0.7 0  0.9 0.7 0  1 0.7 0  0 0.8 0  0.1 0.8 0  0.2 0.8 0  0.3 0.8 0  0.4 0.8 0  0.5 0.8 0  0.6 0.8 0  0.7 0.8 0  0.8 0.8 0  0.9 0.8 0  1 0.8 0  0 0.9 0  0.1 0.9 0  0.2 0.9 0  0.3 0.9 0  0.4 0.9 0  0.5 0.9 0  0.6 0.9 0  0.7 0.9 0  0.8 0.9 0  0.9 0.9 0  1 0.9 0  0 1 0  0.1 1 0  0.2 1 0  0.3 1 0  0.4 1 0  0.5 1 0  0.6 1 0  0.7 1 0  0.8 1 0  0.9 1 0  1 1 0  </DataArray>
</Points>
<Cells>
<DataArray  type="UInt32"  Name="connectivity"  format="ascii">0 1 12  0 11 12  1 2 13  1 12 13  2 3 14  2 13 14  3 4 15  3 14 15  4 5 16  4 15 16  5 6 17  5 16 17  6 7 18  6 17 18  7 8 19  7 18 19  8 9 20  8 19 20  9 10 21  9 20 21  11 12 23  11 22 23  12 13 24  12 23 24  13 14 25  13 24 25  14 15 26  14 25 26  15 16 27  15 26 27  16 17 28  16 27 28  17 18 29  17 28 29  18 19 30  18 29 30  19 20 31  19 30 31  20 21 32  20 31 32  22 23 34  22 33 34  23 24 35  23 34 35  24 25 36  24 35 36  25 26 37  25 36 37  26 27 38  26 37 38  27 28 39  27 38 39  28 29 40  28 39 40  29 30 41  29 40 41  30 31 42  30 41 42  31 32 43  31 42 43  33 34 45  33 44 45  34 35 46  34 45 46  35 36 47  35 46 47  36 37 48  36 47 48  37 38 49  37 48 49  38 39 50  38 49 50  39 40 51  39 50 51  40 41 52  40 51 52  41 42 53  41 52 53  42 43 54  42 53 54  44 45 56  44 55 56  45 46 57  45 56 57  46 47 58  46 57 58  47 48 59  47 58 59  48 49 60  48 59 60  49 50 61  49 60 61  50 51 62  50 61 62  51 52 63  51 62 63  52 53 64  52 63 64  53 54 65  53 64 65  55 56 67  55 66 67  56 57 68  56 67 68  57 58 69  57 68 69  58 59 70  58 69 70  59 60 71  59 70 71  60 61 72  60 71 72  61 62 73  61 72 73  62 63 74  62 73 74  63 64 75  63 74 75  64 65 76  64 75 76  66 67 78  66 77 78  67 68 79  67 78 79  68 69 80  68 79 80  69 70 81  69 80 81  70 71 82  70 81 82  71 72 83  71 82 83  72 73 84  72 83 84  73 74 85  73 84 85  74 75 86  74 85 86  75 76 87  75 86 87  77 78 89  77 88 89  78 79 90  78 89 90  79 80 91  79 90 91  80 81 92  80 91 92  81 82 93  81 92 93  82 83 94  82 93 94  83 84 95  83 94 95  84 85 96  84 95 96  85 86 97  85 96 97  86 87 98  86 97 98  88 89 100  88 99 100  89 90 101  89 100 101  90 91 102  90 101 102  91 92 103  91 102 103  92 93 104  92 103 104  93 94 105  93 104 105  94 95 106  94 105 106  95 96 107  95 106 107  96 97 108  96 107 108  97 98 109  97 108 109  99 100 111  99 110 111  100 101 112  100 111 112  101 102 113  101 112 113  102 103 114  102 113 114  103 104 115  103 114 115  104 105 116  104 115 116  105 106 117  105 116 117  106 107 118  106 117 118  107 108 119  107 118 119  108 109 120  108 119 120  </DataArray>
<DataArray  type="UInt32"  Name="offsets"  format="ascii">3 6 9 12 15 18 21 24 27 30 33 36 39 42 45 48 51 54 57 60 63 66 69 72 75 78 81 84 87 90 93 96 99 102 105 108 111 114 117 120 123 126 129 132 135 138 141 144 147 150 153 156 159 162 165 168 171 174 177 180 183 186 189 192 195 198 201 204 207 210 213 216 219 222 225 228 231 234 237 240 243 246 249 252 255 258 261 264 267 270 273 276 279 282 285 288 291 294 297 300 303 306 309 312 315 318 321 324 327 330 333 336 339 342 345 348 351 354 357 360 363 366 369 372 375 378 381 384 387 390 393 396 399 402 405 408 411 414 417 420 423 426 429 432 435 438 441 444 447 450 453 456 459 462 465 468 471 474 477 480 483 486 489 492 495 498 501 504 507 510 513 516 519 522 525 528 531 534 537 540 543 546 549 552 555 558 561 564 567 570 573 576 579 582 585 588 591 594 597 600 </DataArray>
<DataArray  type="UInt8"  Name="types"  format="ascii">5 5 5 5 5 5 5 5 5 5 5 5 5 5 5 5 5 5 5 5 5 5 5 5 5 5 5 5 5 5 5 5 5 5 5 5 5 5 5 5 5 5 5 5 5 5 5 5 5 5 5 5 5 5 5 5 5 5 5 5 5 5 5 5 5 5 5 5 5 5 5 5 5 5 5 5 5 5 5 5 5 5 5 5 5 5 5 5 5 5 5 5 5 5 5 5 5 5 5 5 5 5 5 5 5 5 5 5 5 5 5 5 5 5 5 5 5 5 5 5 5 5 5 5 5 5 5 5 5 5 5 5 5 5 5 5 5 5 5 5 5 5 5 5 5 5 5 5 5 5 5 5 5 5 5 5 5 5 5 5 5 5 5 5 5 5 5 5 5 5 5 5 5 5 5 5 5 5 5 5 5 5 5 5 5 5 5 5 5 5 5 5 5 5 5 5 5 5 5 5 </DataArray>
</Cells>
<PointData  Vectors="f_22"> 
<DataArray  type="Float64"  Name="f_22"  NumberOfComponents="3" format="ascii">0.0000000000000000e+00 0.0000000000000000e+00 0.0000000000000000e+00  0.0000000000000000e+00 0.0000000000000000e+00 0.0000000000000000e+00  0.0000000000000000e+00 0.0000000000000000e+00 0.0000000000000000e+00  0.0000000000000000e+00 0.0000000000000000e+00 0.0000000000000000e+00  0.0000000000000000e+00 0.0000000000000000e+00 0.0000000000000000e+00  0.0000000000000000e+00 0.0000000000000000e+00 0.0000000000000000e+00  0.0000000000000000e+00 0.0000000000000000e+00 0.0000000000000000e+00  0.0000000000000000e+00 0.0000000000000000e+00 0.0000000000000000e+00  0.0000000000000000e+00 0.0000000000000000e+00 0.0000000000000000e+00  0.0000000000000000e+00 0.0000000000000000e+00 0.0000000000000000e+00  0.0000000000000000e+00 0.0000000000000000e+00 0.0000000000000000e+00  0.0000000000000000e+00 0.0000000000000000e+00 0.0000000000000000e+00  2.3763737967195810e-02 -2.4708152773898439e-02 0.0000000000000000e+00  7.4542114034752402e-02 -3.6190047379314215e-02 0.0000000000000000e+00  1.3502477393081458e-01 -3.8908060353949891e-02 0.0000000000000000e+00  1.9778319142810760e-01 -3.9720959146275062e-02 0.0000000000000000e+00  2.6152896815657173e-01 -4.0335049341106315e-02 0.0000000000000000e+00  3.2603157145931833e-01 -4.0780585506087992e-02 0.0000000000000000e+00  3.9082442208077245e-01 -4.0434388440587811e-02 0.0000000000000000e+00  4.5395631051102187e-01 -3.8126318974596639e-02 0.0000000000000000e+00  5.1103653992263864e-01 -3.3530887407340025e-02 0.0000000000000000e+00  5.5008103176715095e-01 -2.5501178425182174e-02 0.0000000000000000e+00  0.0000000000000000e+00 0.0000000000000000e+00 0.0000000000000000e+00  2.9659975894404483e-02 -7.1649006814295702e-02 0.0000000000000000e+00  8.9697577690044231e-02 -1.0056045283087890e-01 0.0000000000000000e+00  1.6022946181284445e-01 -1.0789640844752253e-01 0.0000000000000000e+00  2.3333355626169214e-01 -1.0992414310083450e-01 0.0000000000000000e+00  3.0764929425653409e-01 -1.1129079767239493e-01 0.0000000000000000e+00  3.8318135704204254e-01 -1.1268662966303906e-01 0.0000000000000000e+00  4.6014118822477218e-01 -1.1341788696541455e-01 0.0000000000000000e+00  5.3893659087294066e-01 -1.1116003119856886e-01 0.0000000000000000e+00  6.1355272887335477e-01 -1.0122806962339655e-01 0.0000000000000000e+00  6.7554823956749532e-01 -7.9155431729834372e-02 0.0000000000000000e+00  0.0000000000000000e+00 0.0000000000000000e+00 0.0000000000000000e+00  2.9607784777034681e-02 -1.2320282922796669e-01 0.0000000000000000e+00  9.0296227107663163e-02 -1.7022126503589566e-01 0.0000000000000000e+00  1.6145363934447526e-01 -1.8259602900504285e-01 0.0000000000000000e+00  2.3508350750008281e-01 -1.8671269649792446e-01 0.0000000000000000e+00  3.0995958631081583e-01 -1.8999951469179893e-01 0.0000000000000000e+00  3.8646600319324714e-01 -1.9359077010000367e-01 0.0000000000000000e+00  4.6564232899287855e-01 -1.9605928329935618e-01 0.0000000000000000e+00  5.4693081447205538e-01 -1.9305999912896718e-01 0.0000000000000000e+00  6.4465571119995302e-01 -1.7824164908612242e-01 0.0000000000000000e+00  7.1958708312024999e-01 -1.5272699137273105e-01 0.0000000000000000e+00  0.0000000000000000e+00 0.0000000000000000e+00 0.0000000000000000e+00  2.9609665372591194e-02 -1.7230747459980472e-01 0.0000000000000000e+00  8.9622160475315196e-02 -2.3522544281246341e-01 0.0000000000000000e+00  1.6011521311728727e-01 -2.5008762155825809e-01 0.0000000000000000e+00  2.3323704863175027e-01 -2.5340237298388446e-01 0.0000000000000000e+00  3.0726584271796503e-01 -2.5493427270070773e-01 0.0000000000000000e+00  3.8187326065964389e-01 -2.5773556138782316e-01 0.0000000000000000e+00  4.5795135249507790e-01 -2.6473475408214192e-01 0.0000000000000000e+00  5.3172603104241722e-01 -2.7505728757969566e-01 0.0000000000000000e+00  5.9183951584502714e-01 -2.8323280995703509e-01 0.0000000000000000e+00  8.0495319683512756e-01 -2.9732104635931417e-01 0.0000000000000000e+00  0.0000000000000000e+00 0.0000000000000000e+00 0.0000000000000000e+00  2.8619403054210086e-02 -2.2518623535446938e-01 0.0000000000000000e+00  8.6628040484612839e-02 -3.0962647990416314e-01 0.0000000000000000e+00  1.5600704826870868e-01 -3.3538369995500572e-01 0.0000000000000000e+00  2.2901148564917173e-01 -3.4632901810112304e-01 0.0000000000000000e+00  3.0186872423867922e-01 -3.5424157325121075e-01 0.0000000000000000e+00  3.7351691786434327e-01 -3.6518771107400666e-01 0.0000000000000000e+00  4.4647325204081528e-01 -3.7917096010478857e-01 0.0000000000000000e+00  5.1452436424691372e-01 -3.8153425308548522e-01 0.0000000000000000e+00  5.0166624276908744e-01 -3.2759150164032846e-01 0.0000000000000000e+00  0.0000000000000000e+00 0.0000000000000000e+00 0.0000000000000000e+00  0.0000000000000000e+00 0.0000000000000000e+00 0.0000000000000000e+00  2.8163757242241468e-02 -2.6807284837214290e-01 0.0000000000000000e+00  8.4293283968921190e-02 -3.6042541890761975e-01 0.0000000000000000e+00  1.5304841636614722e-01 -3.7960477816361832e-01 0.0000000000000000e+00  2.2755397477129755e-01 -3.7802395403219419e-01 0.0000000000000000e+00  3.0165607739784844e-01 -3.6836737097053934e-01 0.0000000000000000e+00  3.6743520010998171e-01 -3.5620848857399201e-01 0.0000000000000000e+00  4.2637410648934471e-01 -3.5686930680137430e-01 0.0000000000000000e+00  4.8653784208639855e-01 -3.8430014840768634e-01 0.0000000000000000e+00  4.8125313273371101e-01 -3.6582340404296138e-01 0.0000000000000000e+00  0.0000000000000000e+00 0.0000000000000000e+00 0.0000000000000000e+00  0.0000000000000000e+00 0.0000000000000000e+00 0.0000000000000000e+00  2.3977799081270370e-02 -3.1850400472672291e-01 0.0000000000000000e+00  6.9534110800588148e-02 -4.4033421853251808e-01 0.0000000000000000e+00  1.3154549867743762e-01 -5.0010578100687664e-01 0.0000000000000000e+00  2.1354669831037285e-01 -5.4238984016907621e-01 0.0000000000000000e+00  2.9084854683467765e-01 -5.4795423720345993e-01 0.0000000000000000e+00  3.3445369660105939e-01 -5.4710318202768093e-01 0.0000000000000000e+00  3.7500987332765567e-01 -5.9670504829315218e-01 0.0000000000000000e+00  4.4453066189777768e-01 -6.3607689941375312e-01 0.0000000000000000e+00  4.7894522462251565e-01 -5.6051109133417387e-01 0.0000000000000000e+00  0.0000000000000000e+00 0.0000000000000000e+00 0.0000000000000000e+00  0.0000000000000000e+00 0.0000000000000000e+00 0.0000000000000000e+00  1.9284641880146988e-02 -3.4572970827973915e-01 0.0000000000000000e+00  5.6481477428624090e-02 -4.6538902754315448e-01 0.0000000000000000e+00  1.1987319703273751e-01 -5.0821114383197130e-01 0.0000000000000000e+00  2.0701432898421313e-01 -5.0311134774171695e-01 0.0000000000000000e+00  2.6832197954057846e-01 -3.9347375229282133e-01 0.0000000000000000e+00  2.8414886122429689e-01 -3.0480221482345732e-01 0.0000000000000000e+00  2.9590457091187161e-01 -2.9373731021935490e-01 0.0000000000000000e+00  3.1492514114027481e-01 -3.4727723099784824e-01 0.0000000000000000e+00  3.3739551727232658e-01 -5.1544942133181171e-01 0.0000000000000000e+00  0.0000000000000000e+00 0.0000000000000000e+00 0.0000000000000000e+00  0.0000000000000000e+00 0.0000000000000000e+00 0.0000000000000000e+00  1.1689085282489181e-02 -3.7859013168559669e-01 0.0000000000000000e+00  3.1440279722649053e-02 -5.2499848784694636e-01 0.0000000000000000e+00  6.1987544500498343e-02 -6.3871888612513306e-01 0.0000000000000000e+00  1.0326670598462663e-01 -7.6478843795058471e-01 0.0000000000000000e+00  1.3844732521146402e-01 -7.2062517147169614e-01 0.0000000000000000e+00  9.4574797174841907e-02 -7.2959580324763285e-01 0.0000000000000000e+00  9.9739417698476523e-02 -8.7654805131868507e-01 0.0000000000000000e+00  1.1295769410171104e-01 -1.0312219119668178e+00 0.0000000000000000e+00  2.9077411335056463e-01 -1.0661546990896094e+00 0.0000000000000000e+00  0.0000000000000000e+00 0.0000000000000000e+00 0.0000000000000000e+00  0.0000000000000000e+00 0.0000000000000000e+00 0.0000000000000000e+00  6.9361654126278462e-03 -3.8129667581398907e-01 0.0000000000000000e+00  1.8206750983865760e-02 -5.1732037318832924e-01 0.0000000000000000e+00  3.5102329312519831e-02 -6.1298775994868682e-01 0.0000000000000000e+00  5.0186434516761080e-02 -6.6964258229421458e-01 0.0000000000000000e+00  0.0000000000000000e+00 0.0000000000000000e+00 0.0000000000000000e+00  0.0000000000000000e+00 0.0000000000000000e+00 0.0000000000000000e+00  0.0000000000000000e+00 0.0000000000000000e+00 0.0000000000000000e+00  0.0000000000000000e+00 0.0000000000000000e+00 0.0000000000000000e+00  0.0000000000000000e+00 0.0000000000000000e+00 0.0000000000000000e+00  0.0000000000000000e+00 0.0000000000000000e+00 0.0000000000000000e+00  </DataArray> 
</PointData> 
</Piece>
</UnstructuredGrid>
</VTKFile>