<?xml version="1.0"?>
<VTKFile type="UnstructuredGrid"  version="0.1"  >
<UnstructuredGrid>
<Piece  NumberOfPoints="121" NumberOfCells="200">
<Points>
<DataArray  type="Float64"  NumberOfComponents="3"  format="ascii">0 0 0  0.1 0 0  0.2 0 0  0.3 0 0  0.4 0 0  0.5 0 0  0.6 0 0  0.7 0 0  0.8 0 0  0.9 0 0  1 0 0  0 0.1 0  0.1 0.1 0  0.2 0.1 0  0.3 0.1 0  0.4 0.1 0  0.5 0.1 0  0.6 0.1 0  0.7 0.1 0  0.8 0.1 0  0.9 0.1 0  1 0.1 0  0 0.2 0  0.1 0.2 0  0.2 0.2 0  0.3 0.2 0  0.4 0.2 0  0.5 0.2 0  0.6 0.2 0  0.7 0.2 0  0.8 0.2 0  0.9 0.2 0  1 0.2 0  0 0.3 0  0.1 0.3 0  0.2 0.3 0  0.3 0.3 0  0.4 0.3 0  0.5 0.3 0  0.6 0.3 0  0.7 0.3 0  0.8 0.3 0  0.9 0.3 0  1 0.3 0  0 0.4 0  0.1 0.4 0  0.2 0.4 0  0.3 0.4 0  0.4 0.4 0  0.5 0.4 0  0.6 0.4 0  0.7 0.4 0  0.8 0.4 0  0.9 0.4 0  1 0.4 0  0 0.5 0  0.1 0.5 0  0.2 0.5 0  0.3 0.5 0  0.4 0.5 0  0.5 0.5 0  0.6 0.5 0  0.7 0.5 0  0.8 0.5 0  0.9 0.5 0  1 0.5 0  0 0.6 0  0.1 0.6 0  0.2 0.6 0  0.3 0.6 0  0.4 0.6 0  0.5 0.6 0  0.6 0.6 0  0.7 0.6 0  0.8 0.6 0  0.9 0.6 0  1 0.6 0  0 0.7 0  0.1 0.7 0  0.2 0.7 0  0.3 0.7 0  0.4 0.7 0  0.5 0.7 0  0.6 0.7 0  0.7 0.7 0  0.8 0.7 0  0.9 0.7 0  1 0.7 0  0 0.8 0  0.1 0.8 0  0.2 0.8 0  0.3 0.8 0  0.4 0.8 0  0.5 0.8 0  0.6 0.8 0  0.7 0.8 0  0.8 0.8 0  0.9 0.8 0  1 0.8 0  0 0.9 0  0.1 0.9 0  0.2 0.9 0  0.3 0.9 0  0.4 0.9 0  0.5 0.9 0  0.6 0.9 0  0.7 0.9 0  0.8 0.9 0  0.9 0.9 0  1 0.9 0  0 1 0  0.1 1 0  0.2 1 0  0.3 1 0  0.4 1 0  0.5 1 0  0.6 1 0  0.7 1 0  0.8 1 0  0.9 1 0  1 1 0  </DataArray>
</Points>
<Cells>
<DataArray  type="UInt32"  Name="connectivity"  format="ascii">0 1 12  0 11 12  1 2 13  1 12 13  2 3 14  2 13 14  3 4 15  3 14 15  4 5 16  4 15 16  5 6 17  5 16 17  6 7 18  6 17 18  7 8 19  7 18 19  8 9 20  8 19 20  9 10 21  9 20 21  11 12 23  11 22 23  12 13 24  12 23 24  13 14 25  13 24 25  14 15 26  14 25 26  15 16 27  15 26 27  16 17 28  16 27 28  17 18 29  17 28 29  18 19 30  18 29 30  19 20 31  19 30 31  20 21 32  20 31 32  22 23 34  22 33 34  23 24 35  23 34 35  24 25 36  24 35 36  25 26 37  25 36 37  26 27 38  26 37 38  27 28 39  27 38 39  28 29 40  28 39 40  29 30 41  29 40 41  30 31 42  30 41 42  31 32 43  31 42 43  33 34 45  33 44 45  34 35 46  34 45 46  35 36 47  35 46 47  36 37 48  36 47 48  37 38 49  37 48 49  38 39 50  38 49 50  39 40 51  39 50 51  40 41 52  40 51 52  41 42 53  41 52 53  42 43 54  42 53 54  44 45 56  44 55 56  45 46 57  45 56 57  46 47 58  46 57 58  47 48 59  47 58 59  48 49 60  48 59 60  49 50 61  49 60 61  50 51 62  50 61 62  51 52 63  51 62 63  52 53 64  52 63 64  53 54 65  53 64 65  55 56 67  55 66 67  56 57 68  56 67 68  57 58 69  57 68 69  58 59 70  58 69 70  59 60 71  59 70 71  60 61 72  60 71 72  61 62 73  61 72 73  62 63 74  62 73 74  63 64 75  63 74 75  64 65 76  64 75 76  66 67 78  66 77 78  67 68 79  67 78 79  68 69 80  68 79 80  69 70 81  69 80 81  70 71 82  70 81 82  71 72 83  71 82 83  72 73 84  72 83 84  73 74 85  73 84 85  74 75 86  74 85 86  75 76 87  75 86 87  77 78 89  77 88 89  78 79 90  78 89 90  79 80 91  79 90 91  80 81 92  80 91 92  81 82 93  81 92 93  82 83 94  82 93 94  83 84 95  83 94 95  84 85 96  84 95 96  85 86 97  85 96 97  86 87 98  86 97 98  88 89 100  88 99 100  89 90 101  89 100 101  90 91 102  90 101 102  91 92 103  91 102 103  92 93 104  92 103 104  93 94 105  93 104 105  94 95 106  94 105 106  95 96 107  95 106 107  96 97 108  96 107 108  97 98 109  97 108 109  99 100 111  99 110 111  100 101 112  100 111 112  101 102 113  101 112 113  102 103 114  102 113 114  103 104 115  103 114 115  104 105 116  104 115 116  105 106 117  105 116 117  106 107 118  106 117 118  107 108 119  107 118 119  108 109 120  108 119 120  </DataArray>
<DataArray  type="UInt32"  Name="offsets"  format="ascii">3 6 9 12 15 18 21 24 27 30 33 36 39 42 45 48 51 54 57 60 63 66 69 72 75 78 81 84 87 90 93 96 99 102 105 108 111 114 117 120 123 126 129 132 135 138 141 144 147 150 153 156 159 162 165 168 171 174 177 180 183 186 189 192 195 198 201 204 207 210 213 216 219 222 225 228 231 234 237 240 243 246 249 252 255 258 261 264 267 270 273 276 279 282 285 288 291 294 297 300 303 306 309 312 315 318 321 324 327 330 333 336 339 342 345 348 351 354 357 360 363 366 369 372 375 378 381 384 387 390 393 396 399 402 405 408 411 414 417 420 423 426 429 432 435 438 441 444 447 450 453 456 459 462 465 468 471 474 477 480 483 486 489 492 495 498 501 504 507 510 513 516 519 522 525 528 531 534 537 540 543 546 549 552 555 558 561 564 567 570 573 576 579 582 585 588 591 594 597 600 </DataArray>
<DataArray  type="UInt8"  Name="types"  format="ascii">5 5 5 5 5 5 5 5 5 5 5 5 5 5 5 5 5 5 5 5 5 5 5 5 5 5 5 5 5 5 5 5 5 5 5 5 5 5 5 5 5 5 5 5 5 5 5 5 5 5 5 5 5 5 5 5 5 5 5 5 5 5 5 5 5 5 5 5 5 5 5 5 5 5 5 5 5 5 5 5 5 5 5 5 5 5 5 5 5 5 5 5 5 5 5 5 5 5 5 5 5 5 5 5 5 5 5 5 5 5 5 5 5 5 5 5 5 5 5 5 5 5 5 5 5 5 5 5 5 5 5 5 5 5 5 5 5 5 5 5 5 5 5 5 5 5 5 5 5 5 5 5 5 5 5 5 5 5 5 5 5 5 5 5 5 5 5 5 5 5 5 5 5 5 5 5 5 5 5 5 5 5 5 5 5 5 5 5 5 5 5 5 5 5 5 5 5 5 5 5 </DataArray>
</Cells>
<PointData  Vectors="f_22"> 
<DataArray  type="Float64"  Name="f_22"  NumberOfComponents="3" format="ascii">0.0000000000000000e+00 0.0000000000000000e+00 0.0000000000000000e+00  0.0000000000000000e+00 0.0000000000000000e+00 0.0000000000000000e+00  0.0000000000000000e+00 0.0000000000000000e+00 0.0000000000000000e+00  0.0000000000000000e+00 0.0000000000000000e+00 0.0000000000000000e+00  0.0000000000000000e+00 0.0000000000000000e+00 0.0000000000000000e+00  0.0000000000000000e+00 0.0000000000000000e+00 0.0000000000000000e+00  0.0000000000000000e+00 0.0000000000000000e+00 0.0000000000000000e+00  0.0000000000000000e+00 0.0000000000000000e+00 0.0000000000000000e+00  0.0000000000000000e+00 0.0000000000000000e+00 0.0000000000000000e+00  0.0000000000000000e+00 0.0000000000000000e+00 0.0000000000000000e+00  0.0000000000000000e+00 0.0000000000000000e+00 0.0000000000000000e+00  0.0000000000000000e+00 0.0000000000000000e+00 0.0000000000000000e+00  2.5660448483228761e-02 -2.6256963622948843e-02 0.0000000000000000e+00  7.3280578555763989e-02 -3.3857361375306032e-02 0.0000000000000000e+00  1.2664644908867698e-01 -3.5028205735540545e-02 0.0000000000000000e+00  1.8092538329672125e-01 -3.5311918229174996e-02 0.0000000000000000e+00  2.3548977185590286e-01 -3.5362336026348216e-02 0.0000000000000000e+00  2.8982984944584017e-01 -3.4885268689242764e-02 0.0000000000000000e+00  3.4288804762944136e-01 -3.3188052954738034e-02 0.0000000000000000e+00  3.9219012552917687e-01 -2.9294873041058347e-02 0.0000000000000000e+00  4.3327852881981899e-01 -2.3015483562610177e-02 0.0000000000000000e+00  4.5481768974456782e-01 -1.4599084609941956e-02 0.0000000000000000e+00  0.0000000000000000e+00 0.0000000000000000e+00 0.0000000000000000e+00  3.0069912686802924e-02 -7.2075750916433395e-02 0.0000000000000000e+00  8.4692279277302426e-02 -9.1045434348673349e-02 0.0000000000000000e+00  1.4559056100307971e-01 -9.4471936454961630e-02 0.0000000000000000e+00  2.0774160728422816e-01 -9.5338355244011214e-02 0.0000000000000000e+00  2.7059449266908320e-01 -9.5611409367571870e-02 0.0000000000000000e+00  3.3391731068419944e-01 -9.4922083426600440e-02 0.0000000000000000e+00  3.9721889966033758e-01 -9.2070411346616962e-02 0.0000000000000000e+00  4.5928975945169181e-01 -8.4534261676424097e-02 0.0000000000000000e+00  5.1417021006611219e-01 -6.8048995109708785e-02 0.0000000000000000e+00  5.5188951885301696e-01 -4.4625425182500990e-02 0.0000000000000000e+00  0.0000000000000000e+00 0.0000000000000000e+00 0.0000000000000000e+00  2.9902638939627340e-02 -1.2073500451994471e-01 0.0000000000000000e+00  8.4857869669910893e-02 -1.5129177864113577e-01 0.0000000000000000e+00  1.4621744372957940e-01 -1.5720511083056268e-01 0.0000000000000000e+00  2.0910640859318883e-01 -1.5927962288391595e-01 0.0000000000000000e+00  2.7323723611423245e-01 -1.6071171453683372e-01 0.0000000000000000e+00  3.3885527334517951e-01 -1.6105066686797323e-01 0.0000000000000000e+00  4.0642495885992069e-01 -1.5846380022325202e-01 0.0000000000000000e+00  4.7485064165942559e-01 -1.4857703964253421e-01 0.0000000000000000e+00  5.4974073207024232e-01 -1.2453169316105765e-01 0.0000000000000000e+00  6.0080748283190943e-01 -9.0143767719239085e-02 0.0000000000000000e+00  0.0000000000000000e+00 0.0000000000000000e+00 0.0000000000000000e+00  2.9560037664063826e-02 -1.6828304908232886e-01 0.0000000000000000e+00  8.3772162334452199e-02 -2.0983632840714339e-01 0.0000000000000000e+00  1.4462374642358347e-01 -2.1758977408410751e-01 0.0000000000000000e+00  2.0748736376531993e-01 -2.2011459247687556e-01 0.0000000000000000e+00  2.7204296750211659e-01 -2.2172771417633635e-01 0.0000000000000000e+00  3.3850594714729126e-01 -2.2282139460213518e-01 0.0000000000000000e+00  4.0746970200952704e-01 -2.2363352280330381e-01 0.0000000000000000e+00  4.7669150250701209e-01 -2.2288548106561260e-01 0.0000000000000000e+00  5.2802588258606464e-01 -2.1406454728859059e-01 0.0000000000000000e+00  6.9384835106775855e-01 -1.8386027538095934e-01 0.0000000000000000e+00  0.0000000000000000e+00 0.0000000000000000e+00 0.0000000000000000e+00  2.8572039628115817e-02 -2.1627720718578733e-01 0.0000000000000000e+00  8.0974649147520186e-02 -2.7115836017562067e-01 0.0000000000000000e+00  1.4072216569130114e-01 -2.8496216114580808e-01 0.0000000000000000e+00  2.0327045008921940e-01 -2.9275116589267286e-01 0.0000000000000000e+00  2.6748238369652477e-01 -3.0038689494690474e-01 0.0000000000000000e+00  3.3415001172427566e-01 -3.0969063015396153e-01 0.0000000000000000e+00  4.0543698887440377e-01 -3.1751481758255046e-01 0.0000000000000000e+00  4.7466676999112634e-01 -3.1153945736947353e-01 0.0000000000000000e+00  4.8179799270322449e-01 -2.6164507679507648e-01 0.0000000000000000e+00  0.0000000000000000e+00 0.0000000000000000e+00 0.0000000000000000e+00  0.0000000000000000e+00 0.0000000000000000e+00 0.0000000000000000e+00  2.7375334745925451e-02 -2.5934417772909141e-01 0.0000000000000000e+00  7.7760851693454675e-02 -3.2157470302392299e-01 0.0000000000000000e+00  1.3680966013887100e-01 -3.3218336234357732e-01 0.0000000000000000e+00  1.9979178989122251e-01 -3.3252961089219724e-01 0.0000000000000000e+00  2.6458978971153535e-01 -3.2981890784751483e-01 0.0000000000000000e+00  3.2997448391396683e-01 -3.2515888028337137e-01 0.0000000000000000e+00  3.9806408265563203e-01 -3.2256256932953081e-01 0.0000000000000000e+00  4.6754908967297260e-01 -3.2659294387711069e-01 0.0000000000000000e+00  4.6639320990315969e-01 -2.8713463042928422e-01 0.0000000000000000e+00  0.0000000000000000e+00 0.0000000000000000e+00 0.0000000000000000e+00  0.0000000000000000e+00 0.0000000000000000e+00 0.0000000000000000e+00  2.3699751420416349e-02 -3.0329099200546095e-01 0.0000000000000000e+00  6.6492204938231755e-02 -3.8405469434275141e-01 0.0000000000000000e+00  1.1994541709459669e-01 -4.2082999370108454e-01 0.0000000000000000e+00  1.8657036681228348e-01 -4.5353608906982967e-01 0.0000000000000000e+00  2.5267817152778310e-01 -4.7364052068070939e-01 0.0000000000000000e+00  3.0481827189360977e-01 -4.9976676912663276e-01 0.0000000000000000e+00  3.6728516718574949e-01 -5.5875000095503669e-01 0.0000000000000000e+00  4.6045098648538729e-01 -5.9788746715960139e-01 0.0000000000000000e+00  4.8294861868900546e-01 -4.8350923091465342e-01 0.0000000000000000e+00  0.0000000000000000e+00 0.0000000000000000e+00 0.0000000000000000e+00  0.0000000000000000e+00 0.0000000000000000e+00 0.0000000000000000e+00  1.8499235947139325e-02 -3.3239641940000064e-01 0.0000000000000000e+00  5.2215172934180369e-02 -4.1558170999161559e-01 0.0000000000000000e+00  1.0710800438431435e-01 -4.4169962388123019e-01 0.0000000000000000e+00  1.8729174472311441e-01 -4.3209938538737663e-01 0.0000000000000000e+00  2.4747477225086648e-01 -3.5934433547960365e-01 0.0000000000000000e+00  2.8045533031393832e-01 -3.0907055806344652e-01 0.0000000000000000e+00  3.2234332451665304e-01 -2.9326515650340029e-01 0.0000000000000000e+00  3.8391635247648898e-01 -3.0480886108034699e-01 0.0000000000000000e+00  4.1925116424597531e-01 -4.2656190622687923e-01 0.0000000000000000e+00  0.0000000000000000e+00 0.0000000000000000e+00 0.0000000000000000e+00  0.0000000000000000e+00 0.0000000000000000e+00 0.0000000000000000e+00  1.0431158508237080e-02 -3.5988901980649535e-01 0.0000000000000000e+00  2.8035368330731458e-02 -4.6252757920776022e-01 0.0000000000000000e+00  5.8436351536714025e-02 -5.4472544175552728e-01 0.0000000000000000e+00  1.0446200256184346e-01 -6.5763082182789523e-01 0.0000000000000000e+00  1.4555736668904695e-01 -6.6978363228414317e-01 0.0000000000000000e+00  1.1596397696320124e-01 -7.2333229211549210e-01 0.0000000000000000e+00  1.2131583684803282e-01 -8.9925986797187718e-01 0.0000000000000000e+00  1.5024442212019348e-01 -1.1141239294998515e+00 0.0000000000000000e+00  3.9830540271483555e-01 -1.2386642330690796e+00 0.0000000000000000e+00  0.0000000000000000e+00 0.0000000000000000e+00 0.0000000000000000e+00  0.0000000000000000e+00 0.0000000000000000e+00 0.0000000000000000e+00  5.5586105952617048e-03 -3.6029656353106543e-01 0.0000000000000000e+00  1.5010422832238456e-02 -4.5880044385471996e-01 0.0000000000000000e+00  3.1184965942464095e-02 -5.3314343140238185e-01 0.0000000000000000e+00  5.1088699094846104e-02 -5.9739600140072868e-01 0.0000000000000000e+00  0.0000000000000000e+00 0.0000000000000000e+00 0.0000000000000000e+00  0.0000000000000000e+00 0.0000000000000000e+00 0.0000000000000000e+00  0.0000000000000000e+00 0.0000000000000000e+00 0.0000000000000000e+00  0.0000000000000000e+00 0.0000000000000000e+00 0.0000000000000000e+00  0.0000000000000000e+00 0.0000000000000000e+00 0.0000000000000000e+00  0.0000000000000000e+00 0.0000000000000000e+00 0.0000000000000000e+00  </DataArray> 
</PointData> 
</Piece>
</UnstructuredGrid>
</VTKFile>