<?xml version="1.0"?>
<VTKFile type="UnstructuredGrid"  version="0.1"  >
<UnstructuredGrid>
<Piece  NumberOfPoints="121" NumberOfCells="200">
<Points>
<DataArray  type="Float64"  NumberOfComponents="3"  format="ascii">0 0 0  0.1 0 0  0.2 0 0  0.3 0 0  0.4 0 0  0.5 0 0  0.6 0 0  0.7 0 0  0.8 0 0  0.9 0 0  1 0 0  0 0.1 0  0.1 0.1 0  0.2 0.1 0  0.3 0.1 0  0.4 0.1 0  0.5 0.1 0  0.6 0.1 0  0.7 0.1 0  0.8 0.1 0  0.9 0.1 0  1 0.1 0  0 0.2 0  0.1 0.2 0  0.2 0.2 0  0.3 0.2 0  0.4 0.2 0  0.5 0.2 0  0.6 0.2 0  0.7 0.2 0  0.8 0.2 0  0.9 0.2 0  1 0.2 0  0 0.3 0  0.1 0.3 0  0.2 0.3 0  0.3 0.3 0  0.4 0.3 0  0.5 0.3 0  0.6 0.3 0  0.7 0.3 0  0.8 0.3 0  0.9 0.3 0  1 0.3 0  0 0.4 0  0.1 0.4 0  0.2 0.4 0  0.3 0.4 0  0.4 0.4 0  0.5 0.4 0  0.6 0.4 0  0.7 0.4 0  0.8 0.4 0  0.9 0.4 0  1 0.4 0  0 0.5 0  0.1 0.5 0  0.2 0.5 0  0.3 0.5 0  0.4 0.5 0  0.5 0.5 0  0.6 0.5 0  0.7 0.5 0  0.8 0.5 0  0.9 0.5 0  1 0.5 0  0 0.6 0  0.1 0.6 0  0.2 0.6 0  0.3 0.6 0  0.4 0.6 0  0.5 0.6 0  0.6 0.6 0  0.7 0.6 0  0.8 0.6 0  0.9 0.6 0  1 0.6 0  0 0.7 0  0.1 0.7 0  0.2 0.7 0  0.3 0.7 0  0.4 0.7 0  0.5 0.7 0  0.6 0.7 0  0.7 0.7 0  0.8 0.7 0  0.9 0.7 0  1 0.7 0  0 0.8 0  0.1 0.8 0  0.2 0.8 0  0.3 0.8 0  0.4 0.8 0  0.5 0.8 0  0.6 0.8 0  0.7 0.8 0  0.8 0.8 0  0.9 0.8 0  1 0.8 0  0 0.9 0  0.1 0.9 0  0.2 0.9 0  0.3 0.9 0  0.4 0.9 0  0.5 0.9 0  0.6 0.9 0  0.7 0.9 0  0.8 0.9 0  0.9 0.9 0  1 0.9 0  0 1 0  0.1 1 0  0.2 1 0  0.3 1 0  0.4 1 0  0.5 1 0  0.6 1 0  0.7 1 0  0.8 1 0  0.9 1 0  1 1 0  </DataArray>
</Points>
<Cells>
<DataArray  type="UInt32"  Name="connectivity"  format="ascii">0 1 12  0 11 12  1 2 13  1 12 13  2 3 14  2 13 14  3 4 15  3 14 15  4 5 16  4 15 16  5 6 17  5 16 17  6 7 18  6 17 18  7 8 19  7 18 19  8 9 20  8 19 20  9 10 21  9 20 21  11 12 23  11 22 23  12 13 24  12 23 24  13 14 25  13 24 25  14 15 26  14 25 26  15 16 27  15 26 27  16 17 28  16 27 28  17 18 29  17 28 29  18 19 30  18 29 30  19 20 31  19 30 31  20 21 32  20 31 32  22 23 34  22 33 34  23 24 35  23 34 35  24 25 36  24 35 36  25 26 37  25 36 37  26 27 38  26 37 38  27 28 39  27 38 39  28 29 40  28 39 40  29 30 41  29 40 41  30 31 42  30 41 42  31 32 43  31 42 43  33 34 45  33 44 45  34 35 46  34 45 46  35 36 47  35 46 47  36 37 48  36 47 48  37 38 49  37 48 49  38 39 50  38 49 50  39 40 51  39 50 51  40 41 52  40 51 52  41 42 53  41 52 53  42 43 54  42 53 54  44 45 56  44 55 56  45 46 57  45 56 57  46 47 58  46 57 58  47 48 59  47 58 59  48 49 60  48 59 60  49 50 61  49 60 61  50 51 62  50 61 62  51 52 63  51 62 63  52 53 64  52 63 64  53 54 65  53 64 65  55 56 67  55 66 67  56 57 68  56 67 68  57 58 69  57 68 69  58 59 70  58 69 70  59 60 71  59 70 71  60 61 72  60 71 72  61 62 73  61 72 73  62 63 74  62 73 74  63 64 75  63 74 75  64 65 76  64 75 76  66 67 78  66 77 78  67 68 79  67 78 79  68 69 80  68 79 80  69 70 81  69 80 81  70 71 82  70 81 82  71 72 83  71 82 83  72 73 84  72 83 84  73 74 85  73 84 85  74 75 86  74 85 86  75 76 87  75 86 87  77 78 89  77 88 89  78 79 90  78 89 90  79 80 91  79 90 91  80 81 92  80 91 92  81 82 93  81 92 93  82 83 94  82 93 94  83 84 95  83 94 95  84 85 96  84 95 96  85 86 97  85 96 97  86 87 98  86 97 98  88 89 100  88 99 100  89 90 101  89 100 101  90 91 102  90 101 102  91 92 103  91 102 103  92 93 104  92 103 104  93 94 105  93 104 105  94 95 106  94 105 106  95 96 107  95 106 107  96 97 108  96 107 108  97 98 109  97 108 109  99 100 111  99 110 111  100 101 112  100 111 112  101 102 113  101 112 113  102 103 114  102 113 114  103 104 115  103 114 115  104 105 116  104 115 116  105 106 117  105 116 117  106 107 118  106 117 118  107 108 119  107 118 119  108 109 120  108 119 120  </DataArray>
<DataArray  type="UInt32"  Name="offsets"  format="ascii">3 6 9 12 15 18 21 24 27 30 33 36 39 42 45 48 51 54 57 60 63 66 69 72 75 78 81 84 87 90 93 96 99 102 105 108 111 114 117 120 123 126 129 132 135 138 141 144 147 150 153 156 159 162 165 168 171 174 177 180 183 186 189 192 195 198 201 204 207 210 213 216 219 222 225 228 231 234 237 240 243 246 249 252 255 258 261 264 267 270 273 276 279 282 285 288 291 294 297 300 303 306 309 312 315 318 321 324 327 330 333 336 339 342 345 348 351 354 357 360 363 366 369 372 375 378 381 384 387 390 393 396 399 402 405 408 411 414 417 420 423 426 429 432 435 438 441 444 447 450 453 456 459 462 465 468 471 474 477 480 483 486 489 492 495 498 501 504 507 510 513 516 519 522 525 528 531 534 537 540 543 546 549 552 555 558 561 564 567 570 573 576 579 582 585 588 591 594 597 600 </DataArray>
<DataArray  type="UInt8"  Name="types"  format="ascii">5 5 5 5 5 5 5 5 5 5 5 5 5 5 5 5 5 5 5 5 5 5 5 5 5 5 5 5 5 5 5 5 5 5 5 5 5 5 5 5 5 5 5 5 5 5 5 5 5 5 5 5 5 5 5 5 5 5 5 5 5 5 5 5 5 5 5 5 5 5 5 5 5 5 5 5 5 5 5 5 5 5 5 5 5 5 5 5 5 5 5 5 5 5 5 5 5 5 5 5 5 5 5 5 5 5 5 5 5 5 5 5 5 5 5 5 5 5 5 5 5 5 5 5 5 5 5 5 5 5 5 5 5 5 5 5 5 5 5 5 5 5 5 5 5 5 5 5 5 5 5 5 5 5 5 5 5 5 5 5 5 5 5 5 5 5 5 5 5 5 5 5 5 5 5 5 5 5 5 5 5 5 5 5 5 5 5 5 5 5 5 5 5 5 5 5 5 5 5 5 </DataArray>
</Cells>
<PointData  Vectors="f_22"> 
<DataArray  type="Float64"  Name="f_22"  NumberOfComponents="3" format="ascii">0.0000000000000000e+00 0.0000000000000000e+00 0.0000000000000000e+00  0.0000000000000000e+00 0.0000000000000000e+00 0.0000000000000000e+00  0.0000000000000000e+00 0.0000000000000000e+00 0.0000000000000000e+00  0.0000000000000000e+00 0.0000000000000000e+00 0.0000000000000000e+00  0.0000000000000000e+00 0.0000000000000000e+00 0.0000000000000000e+00  0.0000000000000000e+00 0.0000000000000000e+00 0.0000000000000000e+00  0.0000000000000000e+00 0.0000000000000000e+00 0.0000000000000000e+00  0.0000000000000000e+00 0.0000000000000000e+00 0.0000000000000000e+00  0.0000000000000000e+00 0.0000000000000000e+00 0.0000000000000000e+00  0.0000000000000000e+00 0.0000000000000000e+00 0.0000000000000000e+00  0.0000000000000000e+00 0.0000000000000000e+00 0.0000000000000000e+00  0.0000000000000000e+00 0.0000000000000000e+00 0.0000000000000000e+00  -5.1776776364631204e-03 4.8324413692340260e-03 0.0000000000000000e+00  -2.0797314183800715e-02 7.7576244017594619e-03 0.0000000000000000e+00  -3.4565019914312510e-02 4.6536213152946204e-03 0.0000000000000000e+00  -4.2125861263231597e-02 2.1528365681233309e-03 0.0000000000000000e+00  -4.6576335780388819e-02 6.7978613463447928e-04 0.0000000000000000e+00  -4.6939662626635958e-02 -1.2033669140261315e-03 0.0000000000000000e+00  -4.2484923417816157e-02 -5.9927576430569016e-03 0.0000000000000000e+00  -2.6003501889217292e-02 -1.6823768070366760e-02 0.0000000000000000e+00  1.4839701458043262e-02 -3.2011684180432841e-02 0.0000000000000000e+00  4.5904959608055122e-02 -4.7240011077367548e-02 0.0000000000000000e+00  0.0000000000000000e+00 0.0000000000000000e+00 0.0000000000000000e+00  -1.0903169693497089e-02 2.2596407616092645e-02 0.0000000000000000e+00  -3.3297405014350599e-02 2.6986302396206543e-02 0.0000000000000000e+00  -5.0042858221475237e-02 1.6248628181011797e-02 0.0000000000000000e+00  -5.7062727994790972e-02 7.5694486062573190e-03 0.0000000000000000e+00  -6.1223674901916665e-02 2.5132570873828233e-03 0.0000000000000000e+00  -5.8829140564780016e-02 -2.4099882111080339e-03 0.0000000000000000e+00  -6.1007793107886475e-02 -1.5097300197201289e-02 0.0000000000000000e+00  -4.9260619061565009e-02 -3.8023896209949747e-02 0.0000000000000000e+00  -4.0431354123362143e-02 -6.6882836420822975e-02 0.0000000000000000e+00  -3.3707183518669685e-02 -8.9811057515653547e-02 0.0000000000000000e+00  0.0000000000000000e+00 0.0000000000000000e+00 0.0000000000000000e+00  -1.0010631430346660e-02 4.2997315309394928e-02 0.0000000000000000e+00  -3.0330342305895409e-02 4.6927333531732889e-02 0.0000000000000000e+00  -4.4098422016112179e-02 2.6342523012655179e-02 0.0000000000000000e+00  -4.7756166322076070e-02 1.1005975698595466e-02 0.0000000000000000e+00  -5.3062888566453838e-02 4.4439599440293113e-03 0.0000000000000000e+00  -5.2040952971596735e-02 1.5065679477232424e-03 0.0000000000000000e+00  -7.9574656654659376e-02 -7.5807084709326742e-03 0.0000000000000000e+00  -8.8103920959274176e-02 -2.0304426758381372e-02 0.0000000000000000e+00  -1.6223025831505442e-01 -4.9607595894347989e-02 0.0000000000000000e+00  -1.8159824185110815e-01 -8.0202143182289021e-02 0.0000000000000000e+00  0.0000000000000000e+00 0.0000000000000000e+00 0.0000000000000000e+00  -9.1535927295807000e-03 6.1392840971276896e-02 0.0000000000000000e+00  -2.7498922241265687e-02 6.4245305427211380e-02 0.0000000000000000e+00  -4.0229254163203144e-02 3.4079971111021803e-02 0.0000000000000000e+00  -4.3606075544054372e-02 1.4365326369653762e-02 0.0000000000000000e+00  -5.5237539036114905e-02 1.0598062843625614e-02 0.0000000000000000e+00  -5.8670308058805777e-02 1.6416721103773714e-02 0.0000000000000000e+00  -1.1345217158432459e-01 2.6852028218426777e-02 0.0000000000000000e+00  -1.2455498807079876e-01 4.0416490644554208e-02 0.0000000000000000e+00  -2.7587866288162377e-01 9.5800046712726274e-03 0.0000000000000000e+00  -2.6892886425325346e-01 -2.9112871019773518e-02 0.0000000000000000e+00  0.0000000000000000e+00 0.0000000000000000e+00 0.0000000000000000e+00  -1.0166852891414674e-02 7.9585056791563594e-02 0.0000000000000000e+00  -2.9349726857805701e-02 8.1181653012019142e-02 0.0000000000000000e+00  -4.4489684625924064e-02 4.2910885376390123e-02 0.0000000000000000e+00  -5.1677054142349778e-02 2.2216143781645145e-02 0.0000000000000000e+00  -7.4573613270512679e-02 2.4591694030787987e-02 0.0000000000000000e+00  -8.1778991689959127e-02 4.1173858717248685e-02 0.0000000000000000e+00  -1.4878345130561857e-01 6.9023925584898241e-02 0.0000000000000000e+00  -1.2002069412203802e-01 9.0318047196620954e-02 0.0000000000000000e+00  -2.5899105898177061e-01 5.8764220262679127e-02 0.0000000000000000e+00  0.0000000000000000e+00 0.0000000000000000e+00 0.0000000000000000e+00  0.0000000000000000e+00 0.0000000000000000e+00 0.0000000000000000e+00  -1.2952702169197970e-02 1.0039659385746962e-01 0.0000000000000000e+00  -3.6511572476566265e-02 1.0121606032960219e-01 0.0000000000000000e+00  -5.8746456972551687e-02 5.7623804002988659e-02 0.0000000000000000e+00  -7.6624696228707462e-02 4.0007456385471298e-02 0.0000000000000000e+00  -1.1553662939319316e-01 5.0102062644060530e-02 0.0000000000000000e+00  -1.2804344484367852e-01 7.2481471949870313e-02 0.0000000000000000e+00  -1.9704231992179458e-01 9.7483012159800000e-02 0.0000000000000000e+00  -1.2581053579439438e-01 9.8850196016005046e-02 0.0000000000000000e+00  -2.3721732535815604e-01 4.4602130066177983e-02 0.0000000000000000e+00  0.0000000000000000e+00 0.0000000000000000e+00 0.0000000000000000e+00  0.0000000000000000e+00 0.0000000000000000e+00 0.0000000000000000e+00  -1.6986670952472631e-02 1.2655950389700413e-01 0.0000000000000000e+00  -4.9384812399974123e-02 1.2887904374673850e-01 0.0000000000000000e+00  -8.4487463344374514e-02 8.5383987984218868e-02 0.0000000000000000e+00  -1.2374711983792568e-01 7.5574006274280001e-02 0.0000000000000000e+00  -1.8106526496117700e-01 9.1396978003926030e-02 0.0000000000000000e+00  -2.0709936834274364e-01 1.0767192814563786e-01 0.0000000000000000e+00  -2.6612663770919659e-01 1.0913571497299950e-01 0.0000000000000000e+00  -1.6836478734525778e-01 6.9389731689759288e-02 0.0000000000000000e+00  -2.5446899452017496e-01 1.2791891142440295e-02 0.0000000000000000e+00  0.0000000000000000e+00 0.0000000000000000e+00 0.0000000000000000e+00  0.0000000000000000e+00 0.0000000000000000e+00 0.0000000000000000e+00  -2.0778513910990882e-02 1.5951984481221071e-01 0.0000000000000000e+00  -6.5046052475257299e-02 1.6985182796872683e-01 0.0000000000000000e+00  -1.1730771784972725e-01 1.3751142005517805e-01 0.0000000000000000e+00  -1.9522755464029962e-01 1.3705613909203412e-01 0.0000000000000000e+00  -2.6847667106637002e-01 1.4621923315087257e-01 0.0000000000000000e+00  -3.0867658803385201e-01 1.4455474755000322e-01 0.0000000000000000e+00  -3.2947981822608530e-01 1.0725049889783894e-01 0.0000000000000000e+00  -2.3881389970144890e-01 2.3861617995235940e-03 0.0000000000000000e+00  -2.2983375325788158e-01 -5.0024849324779845e-02 0.0000000000000000e+00  0.0000000000000000e+00 0.0000000000000000e+00 0.0000000000000000e+00  0.0000000000000000e+00 0.0000000000000000e+00 0.0000000000000000e+00  -2.1423722190619575e-02 1.9696174175314252e-01 0.0000000000000000e+00  -7.1572144411998440e-02 2.2679445722705971e-01 0.0000000000000000e+00  -1.4091964105791877e-01 2.1765650972615144e-01 0.0000000000000000e+00  -2.7441507876370846e-01 2.3573956611281202e-01 0.0000000000000000e+00  -3.5156520415893316e-01 2.2971455112746875e-01 0.0000000000000000e+00  -3.7956284089414860e-01 1.7619214786048734e-01 0.0000000000000000e+00  -3.3290618669621724e-01 2.6312957204717175e-02 0.0000000000000000e+00  -2.2444614209452063e-01 -1.8773355936863467e-01 0.0000000000000000e+00  -5.0587997802500465e-02 -2.2972534777438683e-01 0.0000000000000000e+00  0.0000000000000000e+00 0.0000000000000000e+00 0.0000000000000000e+00  0.0000000000000000e+00 0.0000000000000000e+00 0.0000000000000000e+00  -1.7200598203194115e-02 2.2483742673621768e-01 0.0000000000000000e+00  -6.0318963391934877e-02 2.7472280402075255e-01 0.0000000000000000e+00  -1.5286795845421125e-01 3.0644311795463175e-01 0.0000000000000000e+00  -3.1751224321272398e-01 3.5741297392898269e-01 0.0000000000000000e+00  0.0000000000000000e+00 0.0000000000000000e+00 0.0000000000000000e+00  0.0000000000000000e+00 0.0000000000000000e+00 0.0000000000000000e+00  0.0000000000000000e+00 0.0000000000000000e+00 0.0000000000000000e+00  0.0000000000000000e+00 0.0000000000000000e+00 0.0000000000000000e+00  0.0000000000000000e+00 0.0000000000000000e+00 0.0000000000000000e+00  0.0000000000000000e+00 0.0000000000000000e+00 0.0000000000000000e+00  </DataArray> 
</PointData> 
</Piece>
</UnstructuredGrid>
</VTKFile>