<?xml version="1.0"?>
<VTKFile type="UnstructuredGrid"  version="0.1"  >
<UnstructuredGrid>
<Piece  NumberOfPoints="121" NumberOfCells="200">
<Points>
<DataArray  type="Float64"  NumberOfComponents="3"  format="ascii">0 0 0  0.1 0 0  0.2 0 0  0.3 0 0  0.4 0 0  0.5 0 0  0.6 0 0  0.7 0 0  0.8 0 0  0.9 0 0  1 0 0  0 0.1 0  0.1 0.1 0  0.2 0.1 0  0.3 0.1 0  0.4 0.1 0  0.5 0.1 0  0.6 0.1 0  0.7 0.1 0  0.8 0.1 0  0.9 0.1 0  1 0.1 0  0 0.2 0  0.1 0.2 0  0.2 0.2 0  0.3 0.2 0  0.4 0.2 0  0.5 0.2 0  0.6 0.2 0  0.7 0.2 0  0.8 0.2 0  0.9 0.2 0  1 0.2 0  0 0.3 0  0.1 0.3 0  0.2 0.3 0  0.3 0.3 0  0.4 0.3 0  0.5 0.3 0  0.6 0.3 0  0.7 0.3 0  0.8 0.3 0  0.9 0.3 0  1 0.3 0  0 0.4 0  0.1 0.4 0  0.2 0.4 0  0.3 0.4 0  0.4 0.4 0  0.5 0.4 0  0.6 0.4 0  0.7 0.4 0  0.8 0.4 0  0.9 0.4 0  1 0.4 0  0 0.5 0  0.1 0.5 0  0.2 0.5 0  0.3 0.5 0  0.4 0.5 0  0.5 0.5 0  0.6 0.5 0  0.7 0.5 0  0.8 0.5 0  0.9 0.5 0  1 0.5 0  0 0.6 0  0.1 0.6 0  0.2 0.6 0  0.3 0.6 0  0.4 0.6 0  0.5 0.6 0  0.6 0.6 0  0.7 0.6 0  0.8 0.6 0  0.9 0.6 0  1 0.6 0  0 0.7 0  0.1 0.7 0  0.2 0.7 0  0.3 0.7 0  0.4 0.7 0  0.5 0.7 0  0.6 0.7 0  0.7 0.7 0  0.8 0.7 0  0.9 0.7 0  1 0.7 0  0 0.8 0  0.1 0.8 0  0.2 0.8 0  0.3 0.8 0  0.4 0.8 0  0.5 0.8 0  0.6 0.8 0  0.7 0.8 0  0.8 0.8 0  0.9 0.8 0  1 0.8 0  0 0.9 0  0.1 0.9 0  0.2 0.9 0  0.3 0.9 0  0.4 0.9 0  0.5 0.9 0  0.6 0.9 0  0.7 0.9 0  0.8 0.9 0  0.9 0.9 0  1 0.9 0  0 1 0  0.1 1 0  0.2 1 0  0.3 1 0  0.4 1 0  0.5 1 0  0.6 1 0  0.7 1 0  0.8 1 0  0.9 1 0  1 1 0  </DataArray>
</Points>
<Cells>
<DataArray  type="UInt32"  Name="connectivity"  format="ascii">0 1 12  0 11 12  1 2 13  1 12 13  2 3 14  2 13 14  3 4 15  3 14 15  4 5 16  4 15 16  5 6 17  5 16 17  6 7 18  6 17 18  7 8 19  7 18 19  8 9 20  8 19 20  9 10 21  9 20 21  11 12 23  11 22 23  12 13 24  12 23 24  13 14 25  13 24 25  14 15 26  14 25 26  15 16 27  15 26 27  16 17 28  16 27 28  17 18 29  17 28 29  18 19 30  18 29 30  19 20 31  19 30 31  20 21 32  20 31 32  22 23 34  22 33 34  23 24 35  23 34 35  24 25 36  24 35 36  25 26 37  25 36 37  26 27 38  26 37 38  27 28 39  27 38 39  28 29 40  28 39 40  29 30 41  29 40 41  30 31 42  30 41 42  31 32 43  31 42 43  33 34 45  33 44 45  34 35 46  34 45 46  35 36 47  35 46 47  36 37 48  36 47 48  37 38 49  37 48 49  38 39 50  38 49 50  39 40 51  39 50 51  40 41 52  40 51 52  41 42 53  41 52 53  42 43 54  42 53 54  44 45 56  44 55 56  45 46 57  45 56 57  46 47 58  46 57 58  47 48 59  47 58 59  48 49 60  48 59 60  49 50 61  49 60 61  50 51 62  50 61 62  51 52 63  51 62 63  52 53 64  52 63 64  53 54 65  53 64 65  55 56 67  55 66 67  56 57 68  56 67 68  57 58 69  57 68 69  58 59 70  58 69 70  59 60 71  59 70 71  60 61 72  60 71 72  61 62 73  61 72 73  62 63 74  62 73 74  63 64 75  63 74 75  64 65 76  64 75 76  66 67 78  66 77 78  67 68 79  67 78 79  68 69 80  68 79 80  69 70 81  69 80 81  70 71 82  70 81 82  71 72 83  71 82 83  72 73 84  72 83 84  73 74 85  73 84 85  74 75 86  74 85 86  75 76 87  75 86 87  77 78 89  77 88 89  78 79 90  78 89 90  79 80 91  79 90 91  80 81 92  80 91 92  81 82 93  81 92 93  82 83 94  82 93 94  83 84 95  83 94 95  84 85 96  84 95 96  85 86 97  85 96 97  86 87 98  86 97 98  88 89 100  88 99 100  89 90 101  89 100 101  90 91 102  90 101 102  91 92 103  91 102 103  92 93 104  92 103 104  93 94 105  93 104 105  94 95 106  94 105 106  95 96 107  95 106 107  96 97 108  96 107 108  97 98 109  97 108 109  99 100 111  99 110 111  100 101 112  100 111 112  101 102 113  101 112 113  102 103 114  102 113 114  103 104 115  103 114 115  104 105 116  104 115 116  105 106 117  105 116 117  106 107 118  106 117 118  107 108 119  107 118 119  108 109 120  108 119 120  </DataArray>
<DataArray  type="UInt32"  Name="offsets"  format="ascii">3 6 9 12 15 18 21 24 27 30 33 36 39 42 45 48 51 54 57 60 63 66 69 72 75 78 81 84 87 90 93 96 99 102 105 108 111 114 117 120 123 126 129 132 135 138 141 144 147 150 153 156 159 162 165 168 171 174 177 180 183 186 189 192 195 198 201 204 207 210 213 216 219 222 225 228 231 234 237 240 243 246 249 252 255 258 261 264 267 270 273 276 279 282 285 288 291 294 297 300 303 306 309 312 315 318 321 324 327 330 333 336 339 342 345 348 351 354 357 360 363 366 369 372 375 378 381 384 387 390 393 396 399 402 405 408 411 414 417 420 423 426 429 432 435 438 441 444 447 450 453 456 459 462 465 468 471 474 477 480 483 486 489 492 495 498 501 504 507 510 513 516 519 522 525 528 531 534 537 540 543 546 549 552 555 558 561 564 567 570 573 576 579 582 585 588 591 594 597 600 </DataArray>
<DataArray  type="UInt8"  Name="types"  format="ascii">5 5 5 5 5 5 5 5 5 5 5 5 5 5 5 5 5 5 5 5 5 5 5 5 5 5 5 5 5 5 5 5 5 5 5 5 5 5 5 5 5 5 5 5 5 5 5 5 5 5 5 5 5 5 5 5 5 5 5 5 5 5 5 5 5 5 5 5 5 5 5 5 5 5 5 5 5 5 5 5 5 5 5 5 5 5 5 5 5 5 5 5 5 5 5 5 5 5 5 5 5 5 5 5 5 5 5 5 5 5 5 5 5 5 5 5 5 5 5 5 5 5 5 5 5 5 5 5 5 5 5 5 5 5 5 5 5 5 5 5 5 5 5 5 5 5 5 5 5 5 5 5 5 5 5 5 5 5 5 5 5 5 5 5 5 5 5 5 5 5 5 5 5 5 5 5 5 5 5 5 5 5 5 5 5 5 5 5 5 5 5 5 5 5 5 5 5 5 5 5 </DataArray>
</Cells>
<PointData  Vectors="f_22"> 
<DataArray  type="Float64"  Name="f_22"  NumberOfComponents="3" format="ascii">0.0000000000000000e+00 0.0000000000000000e+00 0.0000000000000000e+00  0.0000000000000000e+00 0.0000000000000000e+00 0.0000000000000000e+00  0.0000000000000000e+00 0.0000000000000000e+00 0.0000000000000000e+00  0.0000000000000000e+00 0.0000000000000000e+00 0.0000000000000000e+00  0.0000000000000000e+00 0.0000000000000000e+00 0.0000000000000000e+00  0.0000000000000000e+00 0.0000000000000000e+00 0.0000000000000000e+00  0.0000000000000000e+00 0.0000000000000000e+00 0.0000000000000000e+00  0.0000000000000000e+00 0.0000000000000000e+00 0.0000000000000000e+00  0.0000000000000000e+00 0.0000000000000000e+00 0.0000000000000000e+00  0.0000000000000000e+00 0.0000000000000000e+00 0.0000000000000000e+00  0.0000000000000000e+00 0.0000000000000000e+00 0.0000000000000000e+00  0.0000000000000000e+00 0.0000000000000000e+00 0.0000000000000000e+00  1.8431475852641044e-02 -1.9677159537573530e-02 0.0000000000000000e+00  6.5704464958995956e-02 -3.3966046453935070e-02 0.0000000000000000e+00  1.2631065050331336e-01 -3.8493661977973929e-02 0.0000000000000000e+00  1.9088764378738585e-01 -3.9944674256208186e-02 0.0000000000000000e+00  2.5714014081340220e-01 -4.1023353566596803e-02 0.0000000000000000e+00  3.2497774076755848e-01 -4.2328549849840039e-02 0.0000000000000000e+00  3.9472468450427312e-01 -4.3560039205897044e-02 0.0000000000000000e+00  4.6558336413307483e-01 -4.3638408426151305e-02 0.0000000000000000e+00  5.3408985453840752e-01 -4.1967190644197148e-02 0.0000000000000000e+00  5.8908763027707078e-01 -3.6741994905521408e-02 0.0000000000000000e+00  0.0000000000000000e+00 0.0000000000000000e+00 0.0000000000000000e+00  2.5292584166198943e-02 -6.1179693862138694e-02 0.0000000000000000e+00  8.3317387103019586e-02 -9.7501010808002414e-02 0.0000000000000000e+00  1.5566462856635679e-01 -1.0943518603061236e-01 0.0000000000000000e+00  2.3226265806309754e-01 -1.1293558179139086e-01 0.0000000000000000e+00  3.1047431558603539e-01 -1.1511866321179762e-01 0.0000000000000000e+00  3.9023209570071721e-01 -1.1824283260623770e-01 0.0000000000000000e+00  4.7242102418383691e-01 -1.2264144145747605e-01 0.0000000000000000e+00  5.5915784908726018e-01 -1.2696238507397498e-01 0.0000000000000000e+00  6.4610492489146065e-01 -1.2659688334691854e-01 0.0000000000000000e+00  7.2679841229679565e-01 -1.1281223375970140e-01 0.0000000000000000e+00  0.0000000000000000e+00 0.0000000000000000e+00 0.0000000000000000e+00  2.5454281894274528e-02 -1.0907873770997346e-01 0.0000000000000000e+00  8.4591971099761215e-02 -1.6879309738143949e-01 0.0000000000000000e+00  1.5790346013946807e-01 -1.8873328049318980e-01 0.0000000000000000e+00  2.3498856347225439e-01 -1.9510265414402778e-01 0.0000000000000000e+00  3.1308614470058332e-01 -1.9923075517364774e-01 0.0000000000000000e+00  3.9219456217106530e-01 -2.0470829562204312e-01 0.0000000000000000e+00  4.7387367958726501e-01 -2.1161129151277458e-01 0.0000000000000000e+00  5.5876817896844122e-01 -2.1677693650534627e-01 0.0000000000000000e+00  6.6469016388537194e-01 -2.1606996277172916e-01 0.0000000000000000e+00  7.5590529884642865e-01 -2.0875772133593576e-01 0.0000000000000000e+00  0.0000000000000000e+00 0.0000000000000000e+00 0.0000000000000000e+00  2.5885777055409516e-02 -1.5313935423468980e-01 0.0000000000000000e+00  8.4643628711501079e-02 -2.3250697699994732e-01 0.0000000000000000e+00  1.5739479185720914e-01 -2.5649148428296425e-01 0.0000000000000000e+00  2.3382498878193270e-01 -2.6181288293095634e-01 0.0000000000000000e+00  3.1021511255774131e-01 -2.6309826504647021e-01 0.0000000000000000e+00  3.8497046303807675e-01 -2.6663958311248881e-01 0.0000000000000000e+00  4.5918514557591333e-01 -2.7862174999696576e-01 0.0000000000000000e+00  5.3147967183025191e-01 -3.0014169743671587e-01 0.0000000000000000e+00  5.9377994382255794e-01 -3.2720735949339180e-01 0.0000000000000000e+00  8.0806623412148793e-01 -3.8083957001195889e-01 0.0000000000000000e+00  0.0000000000000000e+00 0.0000000000000000e+00 0.0000000000000000e+00  2.5135844514645424e-02 -2.0457987656499346e-01 0.0000000000000000e+00  8.2106016204494828e-02 -3.1186335647770158e-01 0.0000000000000000e+00  1.5412990082341790e-01 -3.5059274650689287e-01 0.0000000000000000e+00  2.3134916265351019e-01 -3.6385334576200179e-01 0.0000000000000000e+00  3.0688883421078061e-01 -3.6779645035333208e-01 0.0000000000000000e+00  3.7606145509842998e-01 -3.7295977474050679e-01 0.0000000000000000e+00  4.4041476200379170e-01 -3.8580868588387951e-01 0.0000000000000000e+00  5.0025885299477235e-01 -3.9881850741104896e-01 0.0000000000000000e+00  4.9169248737189891e-01 -3.6517224402184595e-01 0.0000000000000000e+00  0.0000000000000000e+00 0.0000000000000000e+00 0.0000000000000000e+00  0.0000000000000000e+00 0.0000000000000000e+00 0.0000000000000000e+00  2.5381955724269219e-02 -2.4188931734242530e-01 0.0000000000000000e+00  8.0537623685711365e-02 -3.5811535789516458e-01 0.0000000000000000e+00  1.5157069071712664e-01 -3.9122270216601457e-01 0.0000000000000000e+00  2.3091101528689911e-01 -3.9348464132626337e-01 0.0000000000000000e+00  3.0804816816705510e-01 -3.7915134723625693e-01 0.0000000000000000e+00  3.6686696074109365e-01 -3.5798320946685819e-01 0.0000000000000000e+00  4.0742021992982524e-01 -3.5884567005096935e-01 0.0000000000000000e+00  4.4915292845845856e-01 -4.0243123194931263e-01 0.0000000000000000e+00  4.6016616149063733e-01 -4.1725256590706711e-01 0.0000000000000000e+00  0.0000000000000000e+00 0.0000000000000000e+00 0.0000000000000000e+00  0.0000000000000000e+00 0.0000000000000000e+00 0.0000000000000000e+00  2.1615001677981648e-02 -2.9243714234654644e-01 0.0000000000000000e+00  6.5388126758930326e-02 -4.4467227158562861e-01 0.0000000000000000e+00  1.2967304907346999e-01 -5.2434751487083675e-01 0.0000000000000000e+00  2.1635716292054852e-01 -5.7063425796957934e-01 0.0000000000000000e+00  2.9314053000533363e-01 -5.5341270492031114e-01 0.0000000000000000e+00  3.2167432106552762e-01 -5.1414068545110136e-01 0.0000000000000000e+00  3.3569943825603532e-01 -5.3789201971761746e-01 0.0000000000000000e+00  3.7376195269680862e-01 -5.7038119259723996e-01 0.0000000000000000e+00  4.0763248548591002e-01 -5.4810435521777479e-01 0.0000000000000000e+00  0.0000000000000000e+00 0.0000000000000000e+00 0.0000000000000000e+00  0.0000000000000000e+00 0.0000000000000000e+00 0.0000000000000000e+00  1.8144990525796576e-02 -3.1589059007385401e-01 0.0000000000000000e+00  5.5637426845884984e-02 -4.6398963135029325e-01 0.0000000000000000e+00  1.1899827068475438e-01 -5.2688252376456812e-01 0.0000000000000000e+00  1.9916993287013754e-01 -5.3003292229434751e-01 0.0000000000000000e+00  2.4900047604648629e-01 -3.9751874077764615e-01 0.0000000000000000e+00  2.4533460004668101e-01 -2.8311400226013894e-01 0.0000000000000000e+00  2.3386680337358842e-01 -2.7638167979400152e-01 0.0000000000000000e+00  2.2069947292905781e-01 -3.5206003552005871e-01 0.0000000000000000e+00  2.2102107709338401e-01 -4.9786058316349657e-01 0.0000000000000000e+00  0.0000000000000000e+00 0.0000000000000000e+00 0.0000000000000000e+00  0.0000000000000000e+00 0.0000000000000000e+00 0.0000000000000000e+00  1.2142760003067285e-02 -3.5034763958450837e-01 0.0000000000000000e+00  3.2497063355338501e-02 -5.2757521941068120e-01 0.0000000000000000e+00  6.0383325236245178e-02 -6.5997049137309838e-01 0.0000000000000000e+00  9.4765698000349272e-02 -7.7669769656043264e-01 0.0000000000000000e+00  1.1980550387270453e-01 -6.8042793137129176e-01 0.0000000000000000e+00  6.8516571577562330e-02 -6.4178851738686893e-01 0.0000000000000000e+00  7.1296001576611909e-02 -7.4012873448459471e-01 0.0000000000000000e+00  6.4219883344957956e-02 -8.2529027197074023e-01 0.0000000000000000e+00  1.3752936807253680e-01 -7.7664118795306947e-01 0.0000000000000000e+00  0.0000000000000000e+00 0.0000000000000000e+00 0.0000000000000000e+00  0.0000000000000000e+00 0.0000000000000000e+00 0.0000000000000000e+00  7.8326479850864723e-03 -3.5592810556771554e-01 0.0000000000000000e+00  1.9716197504879823e-02 -5.1893732552258254e-01 0.0000000000000000e+00  3.4587616002591449e-02 -6.2821402397685577e-01 0.0000000000000000e+00  4.3525558046540812e-02 -6.7284629480574232e-01 0.0000000000000000e+00  0.0000000000000000e+00 0.0000000000000000e+00 0.0000000000000000e+00  0.0000000000000000e+00 0.0000000000000000e+00 0.0000000000000000e+00  0.0000000000000000e+00 0.0000000000000000e+00 0.0000000000000000e+00  0.0000000000000000e+00 0.0000000000000000e+00 0.0000000000000000e+00  0.0000000000000000e+00 0.0000000000000000e+00 0.0000000000000000e+00  0.0000000000000000e+00 0.0000000000000000e+00 0.0000000000000000e+00  </DataArray> 
</PointData> 
</Piece>
</UnstructuredGrid>
</VTKFile>