<?xml version="1.0"?>
<VTKFile type="UnstructuredGrid"  version="0.1"  >
<UnstructuredGrid>
<Piece  NumberOfPoints="121" NumberOfCells="200">
<Points>
<DataArray  type="Float64"  NumberOfComponents="3"  format="ascii">0 0 0  0.1 0 0  0.2 0 0  0.3 0 0  0.4 0 0  0.5 0 0  0.6 0 0  0.7 0 0  0.8 0 0  0.9 0 0  1 0 0  0 0.1 0  0.1 0.1 0  0.2 0.1 0  0.3 0.1 0  0.4 0.1 0  0.5 0.1 0  0.6 0.1 0  0.7 0.1 0  0.8 0.1 0  0.9 0.1 0  1 0.1 0  0 0.2 0  0.1 0.2 0  0.2 0.2 0  0.3 0.2 0  0.4 0.2 0  0.5 0.2 0  0.6 0.2 0  0.7 0.2 0  0.8 0.2 0  0.9 0.2 0  1 0.2 0  0 0.3 0  0.1 0.3 0  0.2 0.3 0  0.3 0.3 0  0.4 0.3 0  0.5 0.3 0  0.6 0.3 0  0.7 0.3 0  0.8 0.3 0  0.9 0.3 0  1 0.3 0  0 0.4 0  0.1 0.4 0  0.2 0.4 0  0.3 0.4 0  0.4 0.4 0  0.5 0.4 0  0.6 0.4 0  0.7 0.4 0  0.8 0.4 0  0.9 0.4 0  1 0.4 0  0 0.5 0  0.1 0.5 0  0.2 0.5 0  0.3 0.5 0  0.4 0.5 0  0.5 0.5 0  0.6 0.5 0  0.7 0.5 0  0.8 0.5 0  0.9 0.5 0  1 0.5 0  0 0.6 0  0.1 0.6 0  0.2 0.6 0  0.3 0.6 0  0.4 0.6 0  0.5 0.6 0  0.6 0.6 0  0.7 0.6 0  0.8 0.6 0  0.9 0.6 0  1 0.6 0  0 0.7 0  0.1 0.7 0  0.2 0.7 0  0.3 0.7 0  0.4 0.7 0  0.5 0.7 0  0.6 0.7 0  0.7 0.7 0  0.8 0.7 0  0.9 0.7 0  1 0.7 0  0 0.8 0  0.1 0.8 0  0.2 0.8 0  0.3 0.8 0  0.4 0.8 0  0.5 0.8 0  0.6 0.8 0  0.7 0.8 0  0.8 0.8 0  0.9 0.8 0  1 0.8 0  0 0.9 0  0.1 0.9 0  0.2 0.9 0  0.3 0.9 0  0.4 0.9 0  0.5 0.9 0  0.6 0.9 0  0.7 0.9 0  0.8 0.9 0  0.9 0.9 0  1 0.9 0  0 1 0  0.1 1 0  0.2 1 0  0.3 1 0  0.4 1 0  0.5 1 0  0.6 1 0  0.7 1 0  0.8 1 0  0.9 1 0  1 1 0  </DataArray>
</Points>
<Cells>
<DataArray  type="UInt32"  Name="connectivity"  format="ascii">0 1 12  0 11 12  1 2 13  1 12 13  2 3 14  2 13 14  3 4 15  3 14 15  4 5 16  4 15 16  5 6 17  5 16 17  6 7 18  6 17 18  7 8 19  7 18 19  8 9 20  8 19 20  9 10 21  9 20 21  11 12 23  11 22 23  12 13 24  12 23 24  13 14 25  13 24 25  14 15 26  14 25 26  15 16 27  15 26 27  16 17 28  16 27 28  17 18 29  17 28 29  18 19 30  18 29 30  19 20 31  19 30 31  20 21 32  20 31 32  22 23 34  22 33 34  23 24 35  23 34 35  24 25 36  24 35 36  25 26 37  25 36 37  26 27 38  26 37 38  27 28 39  27 38 39  28 29 40  28 39 40  29 30 41  29 40 41  30 31 42  30 41 42  31 32 43  31 42 43  33 34 45  33 44 45  34 35 46  34 45 46  35 36 47  35 46 47  36 37 48  36 47 48  37 38 49  37 48 49  38 39 50  38 49 50  39 40 51  39 50 51  40 41 52  40 51 52  41 42 53  41 52 53  42 43 54  42 53 54  44 45 56  44 55 56  45 46 57  45 56 57  46 47 58  46 57 58  47 48 59  47 58 59  48 49 60  48 59 60  49 50 61  49 60 61  50 51 62  50 61 62  51 52 63  51 62 63  52 53 64  52 63 64  53 54 65  53 64 65  55 56 67  55 66 67  56 57 68  56 67 68  57 58 69  57 68 69  58 59 70  58 69 70  59 60 71  59 70 71  60 61 72  60 71 72  61 62 73  61 72 73  62 63 74  62 73 74  63 64 75  63 74 75  64 65 76  64 75 76  66 67 78  66 77 78  67 68 79  67 78 79  68 69 80  68 79 80  69 70 81  69 80 81  70 71 82  70 81 82  71 72 83  71 82 83  72 73 84  72 83 84  73 74 85  73 84 85  74 75 86  74 85 86  75 76 87  75 86 87  77 78 89  77 88 89  78 79 90  78 89 90  79 80 91  79 90 91  80 81 92  80 91 92  81 82 93  81 92 93  82 83 94  82 93 94  83 84 95  83 94 95  84 85 96  84 95 96  85 86 97  85 96 97  86 87 98  86 97 98  88 89 100  88 99 100  89 90 101  89 100 101  90 91 102  90 101 102  91 92 103  91 102 103  92 93 104  92 103 104  93 94 105  93 104 105  94 95 106  94 105 106  95 96 107  95 106 107  96 97 108  96 107 108  97 98 109  97 108 109  99 100 111  99 110 111  100 101 112  100 111 112  101 102 113  101 112 113  102 103 114  102 113 114  103 104 115  103 114 115  104 105 116  104 115 116  105 106 117  105 116 117  106 107 118  106 117 118  107 108 119  107 118 119  108 109 120  108 119 120  </DataArray>
<DataArray  type="UInt32"  Name="offsets"  format="ascii">3 6 9 12 15 18 21 24 27 30 33 36 39 42 45 48 51 54 57 60 63 66 69 72 75 78 81 84 87 90 93 96 99 102 105 108 111 114 117 120 123 126 129 132 135 138 141 144 147 150 153 156 159 162 165 168 171 174 177 180 183 186 189 192 195 198 201 204 207 210 213 216 219 222 225 228 231 234 237 240 243 246 249 252 255 258 261 264 267 270 273 276 279 282 285 288 291 294 297 300 303 306 309 312 315 318 321 324 327 330 333 336 339 342 345 348 351 354 357 360 363 366 369 372 375 378 381 384 387 390 393 396 399 402 405 408 411 414 417 420 423 426 429 432 435 438 441 444 447 450 453 456 459 462 465 468 471 474 477 480 483 486 489 492 495 498 501 504 507 510 513 516 519 522 525 528 531 534 537 540 543 546 549 552 555 558 561 564 567 570 573 576 579 582 585 588 591 594 597 600 </DataArray>
<DataArray  type="UInt8"  Name="types"  format="ascii">5 5 5 5 5 5 5 5 5 5 5 5 5 5 5 5 5 5 5 5 5 5 5 5 5 5 5 5 5 5 5 5 5 5 5 5 5 5 5 5 5 5 5 5 5 5 5 5 5 5 5 5 5 5 5 5 5 5 5 5 5 5 5 5 5 5 5 5 5 5 5 5 5 5 5 5 5 5 5 5 5 5 5 5 5 5 5 5 5 5 5 5 5 5 5 5 5 5 5 5 5 5 5 5 5 5 5 5 5 5 5 5 5 5 5 5 5 5 5 5 5 5 5 5 5 5 5 5 5 5 5 5 5 5 5 5 5 5 5 5 5 5 5 5 5 5 5 5 5 5 5 5 5 5 5 5 5 5 5 5 5 5 5 5 5 5 5 5 5 5 5 5 5 5 5 5 5 5 5 5 5 5 5 5 5 5 5 5 5 5 5 5 5 5 5 5 5 5 5 5 </DataArray>
</Cells>
<PointData  Vectors="f_22"> 
<DataArray  type="Float64"  Name="f_22"  NumberOfComponents="3" format="ascii">0.0000000000000000e+00 0.0000000000000000e+00 0.0000000000000000e+00  0.0000000000000000e+00 0.0000000000000000e+00 0.0000000000000000e+00  0.0000000000000000e+00 0.0000000000000000e+00 0.0000000000000000e+00  0.0000000000000000e+00 0.0000000000000000e+00 0.0000000000000000e+00  0.0000000000000000e+00 0.0000000000000000e+00 0.0000000000000000e+00  0.0000000000000000e+00 0.0000000000000000e+00 0.0000000000000000e+00  0.0000000000000000e+00 0.0000000000000000e+00 0.0000000000000000e+00  0.0000000000000000e+00 0.0000000000000000e+00 0.0000000000000000e+00  0.0000000000000000e+00 0.0000000000000000e+00 0.0000000000000000e+00  0.0000000000000000e+00 0.0000000000000000e+00 0.0000000000000000e+00  0.0000000000000000e+00 0.0000000000000000e+00 0.0000000000000000e+00  0.0000000000000000e+00 0.0000000000000000e+00 0.0000000000000000e+00  -4.5201397554850923e-03 3.0633065274107206e-03 0.0000000000000000e+00  1.0425133450591356e-02 -1.1927886438647521e-02 0.0000000000000000e+00  4.4422782518854544e-02 -2.0635073309444838e-02 0.0000000000000000e+00  8.7543364444651883e-02 -2.4224516402293832e-02 0.0000000000000000e+00  1.3451383234944014e-01 -2.6169764009600509e-02 0.0000000000000000e+00  1.8446342905313010e-01 -2.8817756434876170e-02 0.0000000000000000e+00  2.3936689203116732e-01 -3.3479461948074274e-02 0.0000000000000000e+00  3.0268499360772572e-01 -4.0428738656219119e-02 0.0000000000000000e+00  3.7632262725759025e-01 -4.9360153927863956e-02 0.0000000000000000e+00  4.5140400862135460e-01 -5.7779943516914498e-02 0.0000000000000000e+00  0.0000000000000000e+00 0.0000000000000000e+00 0.0000000000000000e+00  2.5480148072522836e-03 -4.9394181993183718e-03 0.0000000000000000e+00  2.9634160672734819e-02 -4.4923665590546731e-02 0.0000000000000000e+00  7.7233820037609785e-02 -6.8483689250809554e-02 0.0000000000000000e+00  1.3448345092960254e-01 -7.8103015701885700e-02 0.0000000000000000e+00  1.9503812808772794e-01 -8.2511876387700717e-02 0.0000000000000000e+00  2.5700551020259182e-01 -8.8076986875575830e-02 0.0000000000000000e+00  3.2205214985815583e-01 -9.9079730621907405e-02 0.0000000000000000e+00  3.9419816062007323e-01 -1.1802179484553710e-01 0.0000000000000000e+00  4.7812718871771820e-01 -1.4281535421267599e-01 0.0000000000000000e+00  5.6701564100444357e-01 -1.6383721436293350e-01 0.0000000000000000e+00  0.0000000000000000e+00 0.0000000000000000e+00 0.0000000000000000e+00  3.9242052519875281e-03 -2.1175212536259522e-02 0.0000000000000000e+00  3.3891565630814906e-02 -8.8377259595991242e-02 0.0000000000000000e+00  8.4027896696840521e-02 -1.2676998037421749e-01 0.0000000000000000e+00  1.4274793029031424e-01 -1.4141604796717713e-01 0.0000000000000000e+00  2.0274078257319061e-01 -1.4616764584108866e-01 0.0000000000000000e+00  2.6081595524668882e-01 -1.5120811896178785e-01 0.0000000000000000e+00  3.1803753559844267e-01 -1.6399760051723422e-01 0.0000000000000000e+00  3.7971678188641683e-01 -1.8839285492277746e-01 0.0000000000000000e+00  4.5222680731054421e-01 -2.2394183839626106e-01 0.0000000000000000e+00  5.3584136033806451e-01 -2.7765344091711069e-01 0.0000000000000000e+00  0.0000000000000000e+00 0.0000000000000000e+00 0.0000000000000000e+00  4.9767717324587582e-03 -3.5592801494328689e-02 0.0000000000000000e+00  3.6014789202751363e-02 -1.2703547772444468e-01 0.0000000000000000e+00  8.6763052365322835e-02 -1.7772088007699757e-01 0.0000000000000000e+00  1.4568287281955852e-01 -1.9583879229006457e-01 0.0000000000000000e+00  2.0352904099801716e-01 -1.9801384083012186e-01 0.0000000000000000e+00  2.5326519377324064e-01 -1.9772157660271411e-01 0.0000000000000000e+00  2.9364447550303746e-01 -2.0944099840973024e-01 0.0000000000000000e+00  3.3167647025626051e-01 -2.4607367979963846e-01 0.0000000000000000e+00  3.7307010732852508e-01 -3.1481012698900879e-01 0.0000000000000000e+00  4.3527972762861644e-01 -3.7659373904185561e-01 0.0000000000000000e+00  0.0000000000000000e+00 0.0000000000000000e+00 0.0000000000000000e+00  5.9359707363076143e-03 -5.6832681171691983e-02 0.0000000000000000e+00  3.7040038294706944e-02 -1.7802099816495323e-01 0.0000000000000000e+00  8.8484235623899524e-02 -2.4593443863345563e-01 0.0000000000000000e+00  1.4922970175813718e-01 -2.6830780799401865e-01 0.0000000000000000e+00  2.0484240083086228e-01 -2.6041778395452281e-01 0.0000000000000000e+00  2.4083803271444293e-01 -2.4109760508596373e-01 0.0000000000000000e+00  2.5479139342083951e-01 -2.3692777202702756e-01 0.0000000000000000e+00  2.5530175025310758e-01 -2.6585223567119015e-01 0.0000000000000000e+00  2.6397642911434704e-01 -3.1865696745921407e-01 0.0000000000000000e+00  0.0000000000000000e+00 0.0000000000000000e+00 0.0000000000000000e+00  0.0000000000000000e+00 0.0000000000000000e+00 0.0000000000000000e+00  7.0195879600042140e-03 -7.0878442095002436e-02 0.0000000000000000e+00  3.8230752825292633e-02 -2.0894566560889902e-01 0.0000000000000000e+00  8.8815840499269549e-02 -2.8578840260445360e-01 0.0000000000000000e+00  1.4829260254067578e-01 -3.0945398744613067e-01 0.0000000000000000e+00  1.9552032504204442e-01 -2.8353065090538176e-01 0.0000000000000000e+00  2.0568747616159239e-01 -2.3241805116014691e-01 0.0000000000000000e+00  1.8257653769808058e-01 -2.1326000276406884e-01 0.0000000000000000e+00  1.5432138070553181e-01 -2.4608148792536508e-01 0.0000000000000000e+00  1.1719739774543061e-01 -2.7851368028043810e-01 0.0000000000000000e+00  0.0000000000000000e+00 0.0000000000000000e+00 0.0000000000000000e+00  0.0000000000000000e+00 0.0000000000000000e+00 0.0000000000000000e+00  8.0073093429458321e-03 -9.4313302781591626e-02 0.0000000000000000e+00  3.4462352785211259e-02 -2.6320181287002853e-01 0.0000000000000000e+00  7.9980754573542631e-02 -3.6915568224003337e-01 0.0000000000000000e+00  1.3504604500846612e-01 -4.0152635765982048e-01 0.0000000000000000e+00  1.6276720394215582e-01 -3.2947716694506396e-01 0.0000000000000000e+00  1.3373411547515254e-01 -2.2253232626620389e-01 0.0000000000000000e+00  7.5780514782463920e-02 -1.8724281283078875e-01 0.0000000000000000e+00  3.9950425601202294e-02 -2.1408751021454744e-01 0.0000000000000000e+00  -9.8650225601680394e-02 -1.9333409026485796e-01 0.0000000000000000e+00  0.0000000000000000e+00 0.0000000000000000e+00 0.0000000000000000e+00  0.0000000000000000e+00 0.0000000000000000e+00 0.0000000000000000e+00  7.6094207830431004e-03 -1.0722063844298002e-01 0.0000000000000000e+00  3.1196540436244990e-02 -2.8166749212100367e-01 0.0000000000000000e+00  6.8799431965123684e-02 -3.8618187407281501e-01 0.0000000000000000e+00  1.0509091006738450e-01 -3.9509837316496488e-01 0.0000000000000000e+00  1.0098129948760913e-01 -2.5043622741281524e-01 0.0000000000000000e+00  4.2893805819028276e-02 -1.1592990292497427e-01 0.0000000000000000e+00  -3.8343132535639181e-02 -9.5758747494612356e-02 0.0000000000000000e+00  -8.3269417763168069e-02 -1.3007645810029175e-01 0.0000000000000000e+00  -3.5849409938031168e-01 -7.5707103754854121e-02 0.0000000000000000e+00  0.0000000000000000e+00 0.0000000000000000e+00 0.0000000000000000e+00  0.0000000000000000e+00 0.0000000000000000e+00 0.0000000000000000e+00  8.2121416717481129e-03 -1.2709840159633579e-01 0.0000000000000000e+00  2.4274765459955210e-02 -3.1757607989084735e-01 0.0000000000000000e+00  4.0819512575666773e-02 -4.4761452750597708e-01 0.0000000000000000e+00  5.4140275586995468e-02 -4.7740782806629944e-01 0.0000000000000000e+00  3.5625321100120698e-02 -2.8593544177668562e-01 0.0000000000000000e+00  -3.0104403817407935e-02 -1.3066059706592351e-01 0.0000000000000000e+00  -8.4797874314575597e-02 -6.7247520137563604e-02 0.0000000000000000e+00  -1.3537414473483919e-01 6.5337621801210780e-03 0.0000000000000000e+00  -5.4826625569598275e-01 5.0606517653548809e-02 0.0000000000000000e+00  0.0000000000000000e+00 0.0000000000000000e+00 0.0000000000000000e+00  0.0000000000000000e+00 0.0000000000000000e+00 0.0000000000000000e+00  8.0293874739281752e-03 -1.3932499509353272e-01 0.0000000000000000e+00  1.9151285566258690e-02 -3.2010639068310170e-01 0.0000000000000000e+00  2.7560858463599559e-02 -4.3788067543320092e-01 0.0000000000000000e+00  2.8763036900871775e-02 -4.3380247711923220e-01 0.0000000000000000e+00  0.0000000000000000e+00 0.0000000000000000e+00 0.0000000000000000e+00  0.0000000000000000e+00 0.0000000000000000e+00 0.0000000000000000e+00  0.0000000000000000e+00 0.0000000000000000e+00 0.0000000000000000e+00  0.0000000000000000e+00 0.0000000000000000e+00 0.0000000000000000e+00  0.0000000000000000e+00 0.0000000000000000e+00 0.0000000000000000e+00  0.0000000000000000e+00 0.0000000000000000e+00 0.0000000000000000e+00  </DataArray> 
</PointData> 
</Piece>
</UnstructuredGrid>
</VTKFile>