<?xml version="1.0"?>
<VTKFile type="UnstructuredGrid"  version="0.1"  >
<UnstructuredGrid>
<Piece  NumberOfPoints="121" NumberOfCells="200">
<Points>
<DataArray  type="Float64"  NumberOfComponents="3"  format="ascii">0 0 0  0.1 0 0  0.2 0 0  0.3 0 0  0.4 0 0  0.5 0 0  0.6 0 0  0.7 0 0  0.8 0 0  0.9 0 0  1 0 0  0 0.1 0  0.1 0.1 0  0.2 0.1 0  0.3 0.1 0  0.4 0.1 0  0.5 0.1 0  0.6 0.1 0  0.7 0.1 0  0.8 0.1 0  0.9 0.1 0  1 0.1 0  0 0.2 0  0.1 0.2 0  0.2 0.2 0  0.3 0.2 0  0.4 0.2 0  0.5 0.2 0  0.6 0.2 0  0.7 0.2 0  0.8 0.2 0  0.9 0.2 0  1 0.2 0  0 0.3 0  0.1 0.3 0  0.2 0.3 0  0.3 0.3 0  0.4 0.3 0  0.5 0.3 0  0.6 0.3 0  0.7 0.3 0  0.8 0.3 0  0.9 0.3 0  1 0.3 0  0 0.4 0  0.1 0.4 0  0.2 0.4 0  0.3 0.4 0  0.4 0.4 0  0.5 0.4 0  0.6 0.4 0  0.7 0.4 0  0.8 0.4 0  0.9 0.4 0  1 0.4 0  0 0.5 0  0.1 0.5 0  0.2 0.5 0  0.3 0.5 0  0.4 0.5 0  0.5 0.5 0  0.6 0.5 0  0.7 0.5 0  0.8 0.5 0  0.9 0.5 0  1 0.5 0  0 0.6 0  0.1 0.6 0  0.2 0.6 0  0.3 0.6 0  0.4 0.6 0  0.5 0.6 0  0.6 0.6 0  0.7 0.6 0  0.8 0.6 0  0.9 0.6 0  1 0.6 0  0 0.7 0  0.1 0.7 0  0.2 0.7 0  0.3 0.7 0  0.4 0.7 0  0.5 0.7 0  0.6 0.7 0  0.7 0.7 0  0.8 0.7 0  0.9 0.7 0  1 0.7 0  0 0.8 0  0.1 0.8 0  0.2 0.8 0  0.3 0.8 0  0.4 0.8 0  0.5 0.8 0  0.6 0.8 0  0.7 0.8 0  0.8 0.8 0  0.9 0.8 0  1 0.8 0  0 0.9 0  0.1 0.9 0  0.2 0.9 0  0.3 0.9 0  0.4 0.9 0  0.5 0.9 0  0.6 0.9 0  0.7 0.9 0  0.8 0.9 0  0.9 0.9 0  1 0.9 0  0 1 0  0.1 1 0  0.2 1 0  0.3 1 0  0.4 1 0  0.5 1 0  0.6 1 0  0.7 1 0  0.8 1 0  0.9 1 0  1 1 0  </DataArray>
</Points>
<Cells>
<DataArray  type="UInt32"  Name="connectivity"  format="ascii">0 1 12  0 11 12  1 2 13  1 12 13  2 3 14  2 13 14  3 4 15  3 14 15  4 5 16  4 15 16  5 6 17  5 16 17  6 7 18  6 17 18  7 8 19  7 18 19  8 9 20  8 19 20  9 10 21  9 20 21  11 12 23  11 22 23  12 13 24  12 23 24  13 14 25  13 24 25  14 15 26  14 25 26  15 16 27  15 26 27  16 17 28  16 27 28  17 18 29  17 28 29  18 19 30  18 29 30  19 20 31  19 30 31  20 21 32  20 31 32  22 23 34  22 33 34  23 24 35  23 34 35  24 25 36  24 35 36  25 26 37  25 36 37  26 27 38  26 37 38  27 28 39  27 38 39  28 29 40  28 39 40  29 30 41  29 40 41  30 31 42  30 41 42  31 32 43  31 42 43  33 34 45  33 44 45  34 35 46  34 45 46  35 36 47  35 46 47  36 37 48  36 47 48  37 38 49  37 48 49  38 39 50  38 49 50  39 40 51  39 50 51  40 41 52  40 51 52  41 42 53  41 52 53  42 43 54  42 53 54  44 45 56  44 55 56  45 46 57  45 56 57  46 47 58  46 57 58  47 48 59  47 58 59  48 49 60  48 59 60  49 50 61  49 60 61  50 51 62  50 61 62  51 52 63  51 62 63  52 53 64  52 63 64  53 54 65  53 64 65  55 56 67  55 66 67  56 57 68  56 67 68  57 58 69  57 68 69  58 59 70  58 69 70  59 60 71  59 70 71  60 61 72  60 71 72  61 62 73  61 72 73  62 63 74  62 73 74  63 64 75  63 74 75  64 65 76  64 75 76  66 67 78  66 77 78  67 68 79  67 78 79  68 69 80  68 79 80  69 70 81  69 80 81  70 71 82  70 81 82  71 72 83  71 82 83  72 73 84  72 83 84  73 74 85  73 84 85  74 75 86  74 85 86  75 76 87  75 86 87  77 78 89  77 88 89  78 79 90  78 89 90  79 80 91  79 90 91  80 81 92  80 91 92  81 82 93  81 92 93  82 83 94  82 93 94  83 84 95  83 94 95  84 85 96  84 95 96  85 86 97  85 96 97  86 87 98  86 97 98  88 89 100  88 99 100  89 90 101  89 100 101  90 91 102  90 101 102  91 92 103  91 102 103  92 93 104  92 103 104  93 94 105  93 104 105  94 95 106  94 105 106  95 96 107  95 106 107  96 97 108  96 107 108  97 98 109  97 108 109  99 100 111  99 110 111  100 101 112  100 111 112  101 102 113  101 112 113  102 103 114  102 113 114  103 104 115  103 114 115  104 105 116  104 115 116  105 106 117  105 116 117  106 107 118  106 117 118  107 108 119  107 118 119  108 109 120  108 119 120  </DataArray>
<DataArray  type="UInt32"  Name="offsets"  format="ascii">3 6 9 12 15 18 21 24 27 30 33 36 39 42 45 48 51 54 57 60 63 66 69 72 75 78 81 84 87 90 93 96 99 102 105 108 111 114 117 120 123 126 129 132 135 138 141 144 147 150 153 156 159 162 165 168 171 174 177 180 183 186 189 192 195 198 201 204 207 210 213 216 219 222 225 228 231 234 237 240 243 246 249 252 255 258 261 264 267 270 273 276 279 282 285 288 291 294 297 300 303 306 309 312 315 318 321 324 327 330 333 336 339 342 345 348 351 354 357 360 363 366 369 372 375 378 381 384 387 390 393 396 399 402 405 408 411 414 417 420 423 426 429 432 435 438 441 444 447 450 453 456 459 462 465 468 471 474 477 480 483 486 489 492 495 498 501 504 507 510 513 516 519 522 525 528 531 534 537 540 543 546 549 552 555 558 561 564 567 570 573 576 579 582 585 588 591 594 597 600 </DataArray>
<DataArray  type="UInt8"  Name="types"  format="ascii">5 5 5 5 5 5 5 5 5 5 5 5 5 5 5 5 5 5 5 5 5 5 5 5 5 5 5 5 5 5 5 5 5 5 5 5 5 5 5 5 5 5 5 5 5 5 5 5 5 5 5 5 5 5 5 5 5 5 5 5 5 5 5 5 5 5 5 5 5 5 5 5 5 5 5 5 5 5 5 5 5 5 5 5 5 5 5 5 5 5 5 5 5 5 5 5 5 5 5 5 5 5 5 5 5 5 5 5 5 5 5 5 5 5 5 5 5 5 5 5 5 5 5 5 5 5 5 5 5 5 5 5 5 5 5 5 5 5 5 5 5 5 5 5 5 5 5 5 5 5 5 5 5 5 5 5 5 5 5 5 5 5 5 5 5 5 5 5 5 5 5 5 5 5 5 5 5 5 5 5 5 5 5 5 5 5 5 5 5 5 5 5 5 5 5 5 5 5 5 5 </DataArray>
</Cells>
<PointData  Vectors="f_22"> 
<DataArray  type="Float64"  Name="f_22"  NumberOfComponents="3" format="ascii">0.0000000000000000e+00 0.0000000000000000e+00 0.0000000000000000e+00  0.0000000000000000e+00 0.0000000000000000e+00 0.0000000000000000e+00  0.0000000000000000e+00 0.0000000000000000e+00 0.0000000000000000e+00  0.0000000000000000e+00 0.0000000000000000e+00 0.0000000000000000e+00  0.0000000000000000e+00 0.0000000000000000e+00 0.0000000000000000e+00  0.0000000000000000e+00 0.0000000000000000e+00 0.0000000000000000e+00  0.0000000000000000e+00 0.0000000000000000e+00 0.0000000000000000e+00  0.0000000000000000e+00 0.0000000000000000e+00 0.0000000000000000e+00  0.0000000000000000e+00 0.0000000000000000e+00 0.0000000000000000e+00  0.0000000000000000e+00 0.0000000000000000e+00 0.0000000000000000e+00  0.0000000000000000e+00 0.0000000000000000e+00 0.0000000000000000e+00  0.0000000000000000e+00 0.0000000000000000e+00 0.0000000000000000e+00  2.5100185438919901e-02 -2.5901069717969672e-02 0.0000000000000000e+00  7.5503336554613415e-02 -3.5854196028633489e-02 0.0000000000000000e+00  1.3395272927503840e-01 -3.7869657131264896e-02 0.0000000000000000e+00  1.9405258166282696e-01 -3.8444520718052079e-02 0.0000000000000000e+00  2.5484315616689551e-01 -3.8826294060705570e-02 0.0000000000000000e+00  3.1598091243708443e-01 -3.8873120754664904e-02 0.0000000000000000e+00  3.7670695114362202e-01 -3.7899458342808112e-02 0.0000000000000000e+00  4.3475529836517879e-01 -3.4781244723323008e-02 0.0000000000000000e+00  4.8557416544696536e-01 -2.9279318557470724e-02 0.0000000000000000e+00  5.1722709877553719e-01 -2.0742480010179386e-02 0.0000000000000000e+00  0.0000000000000000e+00 0.0000000000000000e+00 0.0000000000000000e+00  3.0439651555600133e-02 -7.3349680783162258e-02 0.0000000000000000e+00  8.9259369296088437e-02 -9.8317105496355112e-02 0.0000000000000000e+00  1.5681094552614935e-01 -1.0388529409606601e-01 0.0000000000000000e+00  2.2632861389635875e-01 -1.0539577845534939e-01 0.0000000000000000e+00  2.9686243164953285e-01 -1.0633633288232557e-01 0.0000000000000000e+00  3.6834580039447312e-01 -1.0686812281324974e-01 0.0000000000000000e+00  4.4068574841305191e-01 -1.0600274661040889e-01 0.0000000000000000e+00  5.1351017175098068e-01 -1.0122101519293725e-01 0.0000000000000000e+00  5.8066092431795369e-01 -8.7931210597927745e-02 0.0000000000000000e+00  6.3280766392933985e-01 -6.4242125681446285e-02 0.0000000000000000e+00  0.0000000000000000e+00 0.0000000000000000e+00 0.0000000000000000e+00  3.0327249374720852e-02 -1.2464195612726631e-01 0.0000000000000000e+00  8.9645454066680147e-02 -1.6506084273823854e-01 0.0000000000000000e+00  1.5773417946564325e-01 -1.7450334660276065e-01 0.0000000000000000e+00  2.2785709020314621e-01 -1.7772782750077948e-01 0.0000000000000000e+00  2.9927211352959238e-01 -1.8033288572889744e-01 0.0000000000000000e+00  3.7236501143207629e-01 -1.8265386161250102e-01 0.0000000000000000e+00  4.4795302203989340e-01 -1.8297520235909298e-01 0.0000000000000000e+00  5.2510193782941950e-01 -1.7677703735432568e-01 0.0000000000000000e+00  6.1484283676260820e-01 -1.5712289689971787e-01 0.0000000000000000e+00  6.8053451076438265e-01 -1.2644646667906384e-01 0.0000000000000000e+00  0.0000000000000000e+00 0.0000000000000000e+00 0.0000000000000000e+00  3.0159881151559879e-02 -1.7411409864803809e-01 0.0000000000000000e+00  8.8739273102982699e-02 -2.2851324331047970e-01 0.0000000000000000e+00  1.5619462420670618e-01 -2.4010181876821607e-01 0.0000000000000000e+00  2.2597865641931042e-01 -2.4300646638263820e-01 0.0000000000000000e+00  2.9705974902059701e-01 -2.4465034592590951e-01 0.0000000000000000e+00  3.6943230302519009e-01 -2.4684452657717940e-01 0.0000000000000000e+00  4.4387124166003389e-01 -2.5129162361768104e-01 0.0000000000000000e+00  5.1683559277765845e-01 -2.5684281869341663e-01 0.0000000000000000e+00  5.7387980791634718e-01 -2.5725518792730684e-01 0.0000000000000000e+00  7.7263423269472986e-01 -2.5167599570226834e-01 0.0000000000000000e+00  0.0000000000000000e+00 0.0000000000000000e+00 0.0000000000000000e+00  2.9145973938785239e-02 -2.2577386869562396e-01 0.0000000000000000e+00  8.5744214303256294e-02 -2.9833737496352275e-01 0.0000000000000000e+00  1.5202341098783684e-01 -3.1880021391255209e-01 0.0000000000000000e+00  2.2149291140045740e-01 -3.2856516291294097e-01 0.0000000000000000e+00  2.9159619620347232e-01 -3.3699704848081219e-01 0.0000000000000000e+00  3.6230550290083130e-01 -3.4827322051906096e-01 0.0000000000000000e+00  4.3614158896457778e-01 -3.6060151403459184e-01 0.0000000000000000e+00  5.0575393577944150e-01 -3.5911032731168285e-01 0.0000000000000000e+00  4.9820898926823204e-01 -3.0408979767350675e-01 0.0000000000000000e+00  0.0000000000000000e+00 0.0000000000000000e+00 0.0000000000000000e+00  0.0000000000000000e+00 0.0000000000000000e+00 0.0000000000000000e+00  2.8352285975526675e-02 -2.6967892197533011e-01 0.0000000000000000e+00  8.3022594075040673e-02 -3.4997418110133505e-01 0.0000000000000000e+00  1.4871012285591353e-01 -3.6482720129414831e-01 0.0000000000000000e+00  2.1922016630470184e-01 -3.6338902414781754e-01 0.0000000000000000e+00  2.9020230338210651e-01 -3.5636893866892660e-01 0.0000000000000000e+00  3.5694063601219456e-01 -3.4740155612834994e-01 0.0000000000000000e+00  4.2132645383969813e-01 -3.4660438520340198e-01 0.0000000000000000e+00  4.8663445602692917e-01 -3.6413376727078162e-01 0.0000000000000000e+00  4.7836415944771682e-01 -3.3428093871181308e-01 0.0000000000000000e+00  0.0000000000000000e+00 0.0000000000000000e+00 0.0000000000000000e+00  0.0000000000000000e+00 0.0000000000000000e+00 0.0000000000000000e+00  2.4294624363281926e-02 -3.1815922348768066e-01 0.0000000000000000e+00  6.9451093098790009e-02 -4.2369332498437767e-01 0.0000000000000000e+00  1.2872069749072268e-01 -4.7391604263576509e-01 0.0000000000000000e+00  2.0546383443663452e-01 -5.1287668639461192e-01 0.0000000000000000e+00  2.7934381820157750e-01 -5.2622790595262436e-01 0.0000000000000000e+00  3.2757795148114954e-01 -5.3943007350688055e-01 0.0000000000000000e+00  3.7868136399452162e-01 -5.9617401337948439e-01 0.0000000000000000e+00  4.5988465517938415e-01 -6.3710165734559232e-01 0.0000000000000000e+00  4.8956537999727479e-01 -5.4008690485078892e-01 0.0000000000000000e+00  0.0000000000000000e+00 0.0000000000000000e+00 0.0000000000000000e+00  0.0000000000000000e+00 0.0000000000000000e+00 0.0000000000000000e+00  1.9238835400676876e-02 -3.4666309846520138e-01 0.0000000000000000e+00  5.5430955502652514e-02 -4.5184961471455509e-01 0.0000000000000000e+00  1.1647634489776636e-01 -4.8693512478463735e-01 0.0000000000000000e+00  2.0297680350699343e-01 -4.7888843008460091e-01 0.0000000000000000e+00  2.6576400062990979e-01 -3.8301178845050426e-01 0.0000000000000000e+00  2.8934012048763419e-01 -3.0925915712377544e-01 0.0000000000000000e+00  3.1308957999877829e-01 -2.9573841842845111e-01 0.0000000000000000e+00  3.4874679307001916e-01 -3.3367078083492702e-01 0.0000000000000000e+00  3.7701061604781611e-01 -4.9270815225444209e-01 0.0000000000000000e+00  0.0000000000000000e+00 0.0000000000000000e+00 0.0000000000000000e+00  0.0000000000000000e+00 0.0000000000000000e+00 0.0000000000000000e+00  1.1256841694387468e-02 -3.7768537659481932e-01 0.0000000000000000e+00  3.0316885851623999e-02 -5.0706256449420439e-01 0.0000000000000000e+00  6.1314526642959277e-02 -6.0900924383378419e-01 0.0000000000000000e+00  1.0510595278515250e-01 -7.3298618295240936e-01 0.0000000000000000e+00  1.4355253287522771e-01 -7.1280649232545401e-01 0.0000000000000000e+00  1.0461170515538153e-01 -7.4150841203839624e-01 0.0000000000000000e+00  1.0957934777404807e-01 -9.0430759282739159e-01 0.0000000000000000e+00  1.3009259684945848e-01 -1.0864781430849386e+00 0.0000000000000000e+00  3.4269625630757544e-01 -1.1587502401318177e+00 0.0000000000000000e+00  0.0000000000000000e+00 0.0000000000000000e+00 0.0000000000000000e+00  0.0000000000000000e+00 0.0000000000000000e+00 0.0000000000000000e+00  6.4172270997951411e-03 -3.7933603997882726e-01 0.0000000000000000e+00  1.7095465280605435e-02 -5.0077789111180260e-01 0.0000000000000000e+00  3.4147571410577372e-02 -5.8855106457244155e-01 0.0000000000000000e+00  5.1715266020358766e-02 -6.4925560972935892e-01 0.0000000000000000e+00  0.0000000000000000e+00 0.0000000000000000e+00 0.0000000000000000e+00  0.0000000000000000e+00 0.0000000000000000e+00 0.0000000000000000e+00  0.0000000000000000e+00 0.0000000000000000e+00 0.0000000000000000e+00  0.0000000000000000e+00 0.0000000000000000e+00 0.0000000000000000e+00  0.0000000000000000e+00 0.0000000000000000e+00 0.0000000000000000e+00  0.0000000000000000e+00 0.0000000000000000e+00 0.0000000000000000e+00  </DataArray> 
</PointData> 
</Piece>
</UnstructuredGrid>
</VTKFile>