<?xml version="1.0"?>
<VTKFile type="UnstructuredGrid"  version="0.1"  >
<UnstructuredGrid>
<Piece  NumberOfPoints="121" NumberOfCells="200">
<Points>
<DataArray  type="Float64"  NumberOfComponents="3"  format="ascii">0 0 0  0.1 0 0  0.2 0 0  0.3 0 0  0.4 0 0  0.5 0 0  0.6 0 0  0.7 0 0  0.8 0 0  0.9 0 0  1 0 0  0 0.1 0  0.1 0.1 0  0.2 0.1 0  0.3 0.1 0  0.4 0.1 0  0.5 0.1 0  0.6 0.1 0  0.7 0.1 0  0.8 0.1 0  0.9 0.1 0  1 0.1 0  0 0.2 0  0.1 0.2 0  0.2 0.2 0  0.3 0.2 0  0.4 0.2 0  0.5 0.2 0  0.6 0.2 0  0.7 0.2 0  0.8 0.2 0  0.9 0.2 0  1 0.2 0  0 0.3 0  0.1 0.3 0  0.2 0.3 0  0.3 0.3 0  0.4 0.3 0  0.5 0.3 0  0.6 0.3 0  0.7 0.3 0  0.8 0.3 0  0.9 0.3 0  1 0.3 0  0 0.4 0  0.1 0.4 0  0.2 0.4 0  0.3 0.4 0  0.4 0.4 0  0.5 0.4 0  0.6 0.4 0  0.7 0.4 0  0.8 0.4 0  0.9 0.4 0  1 0.4 0  0 0.5 0  0.1 0.5 0  0.2 0.5 0  0.3 0.5 0  0.4 0.5 0  0.5 0.5 0  0.6 0.5 0  0.7 0.5 0  0.8 0.5 0  0.9 0.5 0  1 0.5 0  0 0.6 0  0.1 0.6 0  0.2 0.6 0  0.3 0.6 0  0.4 0.6 0  0.5 0.6 0  0.6 0.6 0  0.7 0.6 0  0.8 0.6 0  0.9 0.6 0  1 0.6 0  0 0.7 0  0.1 0.7 0  0.2 0.7 0  0.3 0.7 0  0.4 0.7 0  0.5 0.7 0  0.6 0.7 0  0.7 0.7 0  0.8 0.7 0  0.9 0.7 0  1 0.7 0  0 0.8 0  0.1 0.8 0  0.2 0.8 0  0.3 0.8 0  0.4 0.8 0  0.5 0.8 0  0.6 0.8 0  0.7 0.8 0  0.8 0.8 0  0.9 0.8 0  1 0.8 0  0 0.9 0  0.1 0.9 0  0.2 0.9 0  0.3 0.9 0  0.4 0.9 0  0.5 0.9 0  0.6 0.9 0  0.7 0.9 0  0.8 0.9 0  0.9 0.9 0  1 0.9 0  0 1 0  0.1 1 0  0.2 1 0  0.3 1 0  0.4 1 0  0.5 1 0  0.6 1 0  0.7 1 0  0.8 1 0  0.9 1 0  1 1 0  </DataArray>
</Points>
<Cells>
<DataArray  type="UInt32"  Name="connectivity"  format="ascii">0 1 12  0 11 12  1 2 13  1 12 13  2 3 14  2 13 14  3 4 15  3 14 15  4 5 16  4 15 16  5 6 17  5 16 17  6 7 18  6 17 18  7 8 19  7 18 19  8 9 20  8 19 20  9 10 21  9 20 21  11 12 23  11 22 23  12 13 24  12 23 24  13 14 25  13 24 25  14 15 26  14 25 26  15 16 27  15 26 27  16 17 28  16 27 28  17 18 29  17 28 29  18 19 30  18 29 30  19 20 31  19 30 31  20 21 32  20 31 32  22 23 34  22 33 34  23 24 35  23 34 35  24 25 36  24 35 36  25 26 37  25 36 37  26 27 38  26 37 38  27 28 39  27 38 39  28 29 40  28 39 40  29 30 41  29 40 41  30 31 42  30 41 42  31 32 43  31 42 43  33 34 45  33 44 45  34 35 46  34 45 46  35 36 47  35 46 47  36 37 48  36 47 48  37 38 49  37 48 49  38 39 50  38 49 50  39 40 51  39 50 51  40 41 52  40 51 52  41 42 53  41 52 53  42 43 54  42 53 54  44 45 56  44 55 56  45 46 57  45 56 57  46 47 58  46 57 58  47 48 59  47 58 59  48 49 60  48 59 60  49 50 61  49 60 61  50 51 62  50 61 62  51 52 63  51 62 63  52 53 64  52 63 64  53 54 65  53 64 65  55 56 67  55 66 67  56 57 68  56 67 68  57 58 69  57 68 69  58 59 70  58 69 70  59 60 71  59 70 71  60 61 72  60 71 72  61 62 73  61 72 73  62 63 74  62 73 74  63 64 75  63 74 75  64 65 76  64 75 76  66 67 78  66 77 78  67 68 79  67 78 79  68 69 80  68 79 80  69 70 81  69 80 81  70 71 82  70 81 82  71 72 83  71 82 83  72 73 84  72 83 84  73 74 85  73 84 85  74 75 86  74 85 86  75 76 87  75 86 87  77 78 89  77 88 89  78 79 90  78 89 90  79 80 91  79 90 91  80 81 92  80 91 92  81 82 93  81 92 93  82 83 94  82 93 94  83 84 95  83 94 95  84 85 96  84 95 96  85 86 97  85 96 97  86 87 98  86 97 98  88 89 100  88 99 100  89 90 101  89 100 101  90 91 102  90 101 102  91 92 103  91 102 103  92 93 104  92 103 104  93 94 105  93 104 105  94 95 106  94 105 106  95 96 107  95 106 107  96 97 108  96 107 108  97 98 109  97 108 109  99 100 111  99 110 111  100 101 112  100 111 112  101 102 113  101 112 113  102 103 114  102 113 114  103 104 115  103 114 115  104 105 116  104 115 116  105 106 117  105 116 117  106 107 118  106 117 118  107 108 119  107 118 119  108 109 120  108 119 120  </DataArray>
<DataArray  type="UInt32"  Name="offsets"  format="ascii">3 6 9 12 15 18 21 24 27 30 33 36 39 42 45 48 51 54 57 60 63 66 69 72 75 78 81 84 87 90 93 96 99 102 105 108 111 114 117 120 123 126 129 132 135 138 141 144 147 150 153 156 159 162 165 168 171 174 177 180 183 186 189 192 195 198 201 204 207 210 213 216 219 222 225 228 231 234 237 240 243 246 249 252 255 258 261 264 267 270 273 276 279 282 285 288 291 294 297 300 303 306 309 312 315 318 321 324 327 330 333 336 339 342 345 348 351 354 357 360 363 366 369 372 375 378 381 384 387 390 393 396 399 402 405 408 411 414 417 420 423 426 429 432 435 438 441 444 447 450 453 456 459 462 465 468 471 474 477 480 483 486 489 492 495 498 501 504 507 510 513 516 519 522 525 528 531 534 537 540 543 546 549 552 555 558 561 564 567 570 573 576 579 582 585 588 591 594 597 600 </DataArray>
<DataArray  type="UInt8"  Name="types"  format="ascii">5 5 5 5 5 5 5 5 5 5 5 5 5 5 5 5 5 5 5 5 5 5 5 5 5 5 5 5 5 5 5 5 5 5 5 5 5 5 5 5 5 5 5 5 5 5 5 5 5 5 5 5 5 5 5 5 5 5 5 5 5 5 5 5 5 5 5 5 5 5 5 5 5 5 5 5 5 5 5 5 5 5 5 5 5 5 5 5 5 5 5 5 5 5 5 5 5 5 5 5 5 5 5 5 5 5 5 5 5 5 5 5 5 5 5 5 5 5 5 5 5 5 5 5 5 5 5 5 5 5 5 5 5 5 5 5 5 5 5 5 5 5 5 5 5 5 5 5 5 5 5 5 5 5 5 5 5 5 5 5 5 5 5 5 5 5 5 5 5 5 5 5 5 5 5 5 5 5 5 5 5 5 5 5 5 5 5 5 5 5 5 5 5 5 5 5 5 5 5 5 </DataArray>
</Cells>
<PointData  Vectors="f_22"> 
<DataArray  type="Float64"  Name="f_22"  NumberOfComponents="3" format="ascii">0.0000000000000000e+00 0.0000000000000000e+00 0.0000000000000000e+00  0.0000000000000000e+00 0.0000000000000000e+00 0.0000000000000000e+00  0.0000000000000000e+00 0.0000000000000000e+00 0.0000000000000000e+00  0.0000000000000000e+00 0.0000000000000000e+00 0.0000000000000000e+00  0.0000000000000000e+00 0.0000000000000000e+00 0.0000000000000000e+00  0.0000000000000000e+00 0.0000000000000000e+00 0.0000000000000000e+00  0.0000000000000000e+00 0.0000000000000000e+00 0.0000000000000000e+00  0.0000000000000000e+00 0.0000000000000000e+00 0.0000000000000000e+00  0.0000000000000000e+00 0.0000000000000000e+00 0.0000000000000000e+00  0.0000000000000000e+00 0.0000000000000000e+00 0.0000000000000000e+00  0.0000000000000000e+00 0.0000000000000000e+00 0.0000000000000000e+00  0.0000000000000000e+00 0.0000000000000000e+00 0.0000000000000000e+00  2.5683820819491159e-02 -2.6302075307263199e-02 0.0000000000000000e+00  7.3736016110009073e-02 -3.4161279008111618e-02 0.0000000000000000e+00  1.2777447087498833e-01 -3.5413116339013721e-02 0.0000000000000000e+00  1.8279622633406692e-01 -3.5725415582400222e-02 0.0000000000000000e+00  2.3814534923903546e-01 -3.5810426704119491e-02 0.0000000000000000e+00  2.9332863287518302e-01 -3.5385210243901351e-02 0.0000000000000000e+00  3.4731287674203587e-01 -3.3753462301549811e-02 0.0000000000000000e+00  3.9763174551651215e-01 -2.9919355442426559e-02 0.0000000000000000e+00  4.3979810049711343e-01 -2.3691018887191221e-02 0.0000000000000000e+00  4.6238125520921924e-01 -1.5215188490766283e-02 0.0000000000000000e+00  0.0000000000000000e+00 0.0000000000000000e+00 0.0000000000000000e+00  3.0200979425327110e-02 -7.2438043925555862e-02 0.0000000000000000e+00  8.5419825133990990e-02 -9.2063498862487686e-02 0.0000000000000000e+00  1.4717177168857337e-01 -9.5697115652156980e-02 0.0000000000000000e+00  2.1024483995008927e-01 -9.6628372747231295e-02 0.0000000000000000e+00  2.7405537834736149e-01 -9.6974874469760858e-02 0.0000000000000000e+00  3.3839104847871304e-01 -9.6411370200029545e-02 0.0000000000000000e+00  4.0280017465939488e-01 -9.3748324699076693e-02 0.0000000000000000e+00  4.6614099000632425e-01 -8.6449960015190161e-02 0.0000000000000000e+00  5.2241504822107165e-01 -7.0200054103748438e-02 0.0000000000000000e+00  5.6166875874634736e-01 -4.6603621512627903e-02 0.0000000000000000e+00  0.0000000000000000e+00 0.0000000000000000e+00 0.0000000000000000e+00  3.0037913156950639e-02 -1.2151668756111687e-01 0.0000000000000000e+00  8.5604815205653925e-02 -1.5314247011509682e-01 0.0000000000000000e+00  1.4782408931918203e-01 -1.5939478888492978e-01 0.0000000000000000e+00  2.1162140420103692e-01 -1.6158517213609117e-01 0.0000000000000000e+00  2.7667329255624168e-01 -1.6314850408308698e-01 0.0000000000000000e+00  3.4324658805309222e-01 -1.6369886390965457e-01 0.0000000000000000e+00  4.1184695988256453e-01 -1.6140295783351072e-01 0.0000000000000000e+00  4.8137189210568015e-01 -1.5184946564491156e-01 0.0000000000000000e+00  5.5800984163435474e-01 -1.2811579321471378e-01 0.0000000000000000e+00  6.1071097969745314e-01 -9.3905263399067476e-02 0.0000000000000000e+00  0.0000000000000000e+00 0.0000000000000000e+00 0.0000000000000000e+00  2.9709466628200416e-02 -1.6942079366479892e-01 0.0000000000000000e+00  8.4528604874557683e-02 -2.1237586636908459e-01 0.0000000000000000e+00  1.4622214528039149e-01 -2.2049723194040541e-01 0.0000000000000000e+00  2.0995792368835681e-01 -2.2306129100868319e-01 0.0000000000000000e+00  2.7535547259951260e-01 -2.2469493759292514e-01 0.0000000000000000e+00  3.4261911544690804e-01 -2.2592053942171178e-01 0.0000000000000000e+00  4.1236511236779144e-01 -2.2711596745108259e-01 0.0000000000000000e+00  4.8218694570009257e-01 -2.2700615774405719e-01 0.0000000000000000e+00  5.3417052393967057e-01 -2.1904150243850959e-01 0.0000000000000000e+00  7.0413132104390064e-01 -1.9111915760922332e-01 0.0000000000000000e+00  0.0000000000000000e+00 0.0000000000000000e+00 0.0000000000000000e+00  2.8715907679461125e-02 -2.1792035852363117e-01 0.0000000000000000e+00  8.1699476057142936e-02 -2.7471230214071268e-01 0.0000000000000000e+00  1.4227202070162603e-01 -2.8917158553029465e-01 0.0000000000000000e+00  2.0567778438748710e-01 -2.9718684560452785e-01 0.0000000000000000e+00  2.7064789836541731e-01 -3.0498600658691244e-01 0.0000000000000000e+00  3.3792065358311751e-01 -3.1461990118775451e-01 0.0000000000000000e+00  4.0971712018940343e-01 -3.2302608547931555e-01 0.0000000000000000e+00  4.7918663626845998e-01 -3.1749021866438243e-01 0.0000000000000000e+00  4.8445234575426876e-01 -2.6678208485110211e-01 0.0000000000000000e+00  0.0000000000000000e+00 0.0000000000000000e+00 0.0000000000000000e+00  0.0000000000000000e+00 0.0000000000000000e+00 0.0000000000000000e+00  2.7554873972319566e-02 -2.6122476141491402e-01 0.0000000000000000e+00  7.8529286833938450e-02 -3.2542743335185648e-01 0.0000000000000000e+00  1.3842068478430677e-01 -3.3639804310771076e-01 0.0000000000000000e+00  2.0231742509659092e-01 -3.3649048625559974e-01 0.0000000000000000e+00  2.6788686827902775e-01 -3.3330050655656129e-01 0.0000000000000000e+00  3.3359425545553950e-01 -3.2817974491903595e-01 0.0000000000000000e+00  4.0155038895080392e-01 -3.2571020726916294e-01 0.0000000000000000e+00  4.7076828938148246e-01 -3.3104604971578810e-01 0.0000000000000000e+00  4.6806675321227798e-01 -2.9225471333986419e-01 0.0000000000000000e+00  0.0000000000000000e+00 0.0000000000000000e+00 0.0000000000000000e+00  0.0000000000000000e+00 0.0000000000000000e+00 0.0000000000000000e+00  2.3830680024093547e-02 -3.0575190378764372e-01 0.0000000000000000e+00  6.6994448386310024e-02 -3.8921738576034159e-01 0.0000000000000000e+00  1.2118250100421639e-01 -4.2739914601124218e-01 0.0000000000000000e+00  1.8901313901796510e-01 -4.6085893302217312e-01 0.0000000000000000e+00  2.5608523690982221e-01 -4.8052558300001108e-01 0.0000000000000000e+00  3.0797776654853981e-01 -5.0575221440122708e-01 0.0000000000000000e+00  3.6951187694948451e-01 -5.6502890569562847e-01 0.0000000000000000e+00  4.6174084105230506e-01 -6.0468049083265674e-01 0.0000000000000000e+00  4.8475922769607815e-01 -4.9108124488240523e-01 0.0000000000000000e+00  0.0000000000000000e+00 0.0000000000000000e+00 0.0000000000000000e+00  0.0000000000000000e+00 0.0000000000000000e+00 0.0000000000000000e+00  1.8621714711099663e-02 -3.3488649996818104e-01 0.0000000000000000e+00  5.2671352367520075e-02 -4.2049699060673368e-01 0.0000000000000000e+00  1.0838689555558893e-01 -4.4745357788527818e-01 0.0000000000000000e+00  1.8957935207168133e-01 -4.3782348991574799e-01 0.0000000000000000e+00  2.5031151964820531e-01 -3.6240876139524125e-01 0.0000000000000000e+00  2.8240826658755586e-01 -3.0954173733763302e-01 0.0000000000000000e+00  3.2236829406906364e-01 -2.9382879628732184e-01 0.0000000000000000e+00  3.8109864738485838e-01 -3.0830240173996870e-01 0.0000000000000000e+00  4.1569959318454330e-01 -4.3549574798433927e-01 0.0000000000000000e+00  0.0000000000000000e+00 0.0000000000000000e+00 0.0000000000000000e+00  0.0000000000000000e+00 0.0000000000000000e+00 0.0000000000000000e+00  1.0532454963437987e-02 -3.6280434397020705e-01 0.0000000000000000e+00  2.8321593666775492e-02 -4.6841919080882966e-01 0.0000000000000000e+00  5.8873776136574220e-02 -5.5286876025151810e-01 0.0000000000000000e+00  1.0477200689523923e-01 -6.6744725835390295e-01 0.0000000000000000e+00  1.4573085122356552e-01 -6.7634769104408909e-01 0.0000000000000000e+00  1.1498525807391786e-01 -7.2749859897816882e-01 0.0000000000000000e+00  1.2016924758912322e-01 -9.0267993219140930e-01 0.0000000000000000e+00  1.4827671216865154e-01 -1.1145549146169846e+00 0.0000000000000000e+00  3.9344947708391492e-01 -1.2335782555559680e+00 0.0000000000000000e+00  0.0000000000000000e+00 0.0000000000000000e+00 0.0000000000000000e+00  0.0000000000000000e+00 0.0000000000000000e+00 0.0000000000000000e+00  5.6575676910520642e-03 -3.6333095860907255e-01 0.0000000000000000e+00  1.5262812875863330e-02 -4.6440117807864495e-01 0.0000000000000000e+00  3.1598910305122900e-02 -5.4031259100233853e-01 0.0000000000000000e+00  5.1346880962158552e-02 -6.0435393829266060e-01 0.0000000000000000e+00  0.0000000000000000e+00 0.0000000000000000e+00 0.0000000000000000e+00  0.0000000000000000e+00 0.0000000000000000e+00 0.0000000000000000e+00  0.0000000000000000e+00 0.0000000000000000e+00 0.0000000000000000e+00  0.0000000000000000e+00 0.0000000000000000e+00 0.0000000000000000e+00  0.0000000000000000e+00 0.0000000000000000e+00 0.0000000000000000e+00  0.0000000000000000e+00 0.0000000000000000e+00 0.0000000000000000e+00  </DataArray> 
</PointData> 
</Piece>
</UnstructuredGrid>
</VTKFile>