<?xml version="1.0"?>
<VTKFile type="UnstructuredGrid"  version="0.1"  >
<UnstructuredGrid>
<Piece  NumberOfPoints="121" NumberOfCells="200">
<Points>
<DataArray  type="Float64"  NumberOfComponents="3"  format="ascii">0 0 0  0.1 0 0  0.2 0 0  0.3 0 0  0.4 0 0  0.5 0 0  0.6 0 0  0.7 0 0  0.8 0 0  0.9 0 0  1 0 0  0 0.1 0  0.1 0.1 0  0.2 0.1 0  0.3 0.1 0  0.4 0.1 0  0.5 0.1 0  0.6 0.1 0  0.7 0.1 0  0.8 0.1 0  0.9 0.1 0  1 0.1 0  0 0.2 0  0.1 0.2 0  0.2 0.2 0  0.3 0.2 0  0.4 0.2 0  0.5 0.2 0  0.6 0.2 0  0.7 0.2 0  0.8 0.2 0  0.9 0.2 0  1 0.2 0  0 0.3 0  0.1 0.3 0  0.2 0.3 0  0.3 0.3 0  0.4 0.3 0  0.5 0.3 0  0.6 0.3 0  0.7 0.3 0  0.8 0.3 0  0.9 0.3 0  1 0.3 0  0 0.4 0  0.1 0.4 0  0.2 0.4 0  0.3 0.4 0  0.4 0.4 0  0.5 0.4 0  0.6 0.4 0  0.7 0.4 0  0.8 0.4 0  0.9 0.4 0  1 0.4 0  0 0.5 0  0.1 0.5 0  0.2 0.5 0  0.3 0.5 0  0.4 0.5 0  0.5 0.5 0  0.6 0.5 0  0.7 0.5 0  0.8 0.5 0  0.9 0.5 0  1 0.5 0  0 0.6 0  0.1 0.6 0  0.2 0.6 0  0.3 0.6 0  0.4 0.6 0  0.5 0.6 0  0.6 0.6 0  0.7 0.6 0  0.8 0.6 0  0.9 0.6 0  1 0.6 0  0 0.7 0  0.1 0.7 0  0.2 0.7 0  0.3 0.7 0  0.4 0.7 0  0.5 0.7 0  0.6 0.7 0  0.7 0.7 0  0.8 0.7 0  0.9 0.7 0  1 0.7 0  0 0.8 0  0.1 0.8 0  0.2 0.8 0  0.3 0.8 0  0.4 0.8 0  0.5 0.8 0  0.6 0.8 0  0.7 0.8 0  0.8 0.8 0  0.9 0.8 0  1 0.8 0  0 0.9 0  0.1 0.9 0  0.2 0.9 0  0.3 0.9 0  0.4 0.9 0  0.5 0.9 0  0.6 0.9 0  0.7 0.9 0  0.8 0.9 0  0.9 0.9 0  1 0.9 0  0 1 0  0.1 1 0  0.2 1 0  0.3 1 0  0.4 1 0  0.5 1 0  0.6 1 0  0.7 1 0  0.8 1 0  0.9 1 0  1 1 0  </DataArray>
</Points>
<Cells>
<DataArray  type="UInt32"  Name="connectivity"  format="ascii">0 1 12  0 11 12  1 2 13  1 12 13  2 3 14  2 13 14  3 4 15  3 14 15  4 5 16  4 15 16  5 6 17  5 16 17  6 7 18  6 17 18  7 8 19  7 18 19  8 9 20  8 19 20  9 10 21  9 20 21  11 12 23  11 22 23  12 13 24  12 23 24  13 14 25  13 24 25  14 15 26  14 25 26  15 16 27  15 26 27  16 17 28  16 27 28  17 18 29  17 28 29  18 19 30  18 29 30  19 20 31  19 30 31  20 21 32  20 31 32  22 23 34  22 33 34  23 24 35  23 34 35  24 25 36  24 35 36  25 26 37  25 36 37  26 27 38  26 37 38  27 28 39  27 38 39  28 29 40  28 39 40  29 30 41  29 40 41  30 31 42  30 41 42  31 32 43  31 42 43  33 34 45  33 44 45  34 35 46  34 45 46  35 36 47  35 46 47  36 37 48  36 47 48  37 38 49  37 48 49  38 39 50  38 49 50  39 40 51  39 50 51  40 41 52  40 51 52  41 42 53  41 52 53  42 43 54  42 53 54  44 45 56  44 55 56  45 46 57  45 56 57  46 47 58  46 57 58  47 48 59  47 58 59  48 49 60  48 59 60  49 50 61  49 60 61  50 51 62  50 61 62  51 52 63  51 62 63  52 53 64  52 63 64  53 54 65  53 64 65  55 56 67  55 66 67  56 57 68  56 67 68  57 58 69  57 68 69  58 59 70  58 69 70  59 60 71  59 70 71  60 61 72  60 71 72  61 62 73  61 72 73  62 63 74  62 73 74  63 64 75  63 74 75  64 65 76  64 75 76  66 67 78  66 77 78  67 68 79  67 78 79  68 69 80  68 79 80  69 70 81  69 80 81  70 71 82  70 81 82  71 72 83  71 82 83  72 73 84  72 83 84  73 74 85  73 84 85  74 75 86  74 85 86  75 76 87  75 86 87  77 78 89  77 88 89  78 79 90  78 89 90  79 80 91  79 90 91  80 81 92  80 91 92  81 82 93  81 92 93  82 83 94  82 93 94  83 84 95  83 94 95  84 85 96  84 95 96  85 86 97  85 96 97  86 87 98  86 97 98  88 89 100  88 99 100  89 90 101  89 100 101  90 91 102  90 101 102  91 92 103  91 102 103  92 93 104  92 103 104  93 94 105  93 104 105  94 95 106  94 105 106  95 96 107  95 106 107  96 97 108  96 107 108  97 98 109  97 108 109  99 100 111  99 110 111  100 101 112  100 111 112  101 102 113  101 112 113  102 103 114  102 113 114  103 104 115  103 114 115  104 105 116  104 115 116  105 106 117  105 116 117  106 107 118  106 117 118  107 108 119  107 118 119  108 109 120  108 119 120  </DataArray>
<DataArray  type="UInt32"  Name="offsets"  format="ascii">3 6 9 12 15 18 21 24 27 30 33 36 39 42 45 48 51 54 57 60 63 66 69 72 75 78 81 84 87 90 93 96 99 102 105 108 111 114 117 120 123 126 129 132 135 138 141 144 147 150 153 156 159 162 165 168 171 174 177 180 183 186 189 192 195 198 201 204 207 210 213 216 219 222 225 228 231 234 237 240 243 246 249 252 255 258 261 264 267 270 273 276 279 282 285 288 291 294 297 300 303 306 309 312 315 318 321 324 327 330 333 336 339 342 345 348 351 354 357 360 363 366 369 372 375 378 381 384 387 390 393 396 399 402 405 408 411 414 417 420 423 426 429 432 435 438 441 444 447 450 453 456 459 462 465 468 471 474 477 480 483 486 489 492 495 498 501 504 507 510 513 516 519 522 525 528 531 534 537 540 543 546 549 552 555 558 561 564 567 570 573 576 579 582 585 588 591 594 597 600 </DataArray>
<DataArray  type="UInt8"  Name="types"  format="ascii">5 5 5 5 5 5 5 5 5 5 5 5 5 5 5 5 5 5 5 5 5 5 5 5 5 5 5 5 5 5 5 5 5 5 5 5 5 5 5 5 5 5 5 5 5 5 5 5 5 5 5 5 5 5 5 5 5 5 5 5 5 5 5 5 5 5 5 5 5 5 5 5 5 5 5 5 5 5 5 5 5 5 5 5 5 5 5 5 5 5 5 5 5 5 5 5 5 5 5 5 5 5 5 5 5 5 5 5 5 5 5 5 5 5 5 5 5 5 5 5 5 5 5 5 5 5 5 5 5 5 5 5 5 5 5 5 5 5 5 5 5 5 5 5 5 5 5 5 5 5 5 5 5 5 5 5 5 5 5 5 5 5 5 5 5 5 5 5 5 5 5 5 5 5 5 5 5 5 5 5 5 5 5 5 5 5 5 5 5 5 5 5 5 5 5 5 5 5 5 5 </DataArray>
</Cells>
<PointData  Vectors="f_22"> 
<DataArray  type="Float64"  Name="f_22"  NumberOfComponents="3" format="ascii">0.0000000000000000e+00 0.0000000000000000e+00 0.0000000000000000e+00  0.0000000000000000e+00 0.0000000000000000e+00 0.0000000000000000e+00  0.0000000000000000e+00 0.0000000000000000e+00 0.0000000000000000e+00  0.0000000000000000e+00 0.0000000000000000e+00 0.0000000000000000e+00  0.0000000000000000e+00 0.0000000000000000e+00 0.0000000000000000e+00  0.0000000000000000e+00 0.0000000000000000e+00 0.0000000000000000e+00  0.0000000000000000e+00 0.0000000000000000e+00 0.0000000000000000e+00  0.0000000000000000e+00 0.0000000000000000e+00 0.0000000000000000e+00  0.0000000000000000e+00 0.0000000000000000e+00 0.0000000000000000e+00  0.0000000000000000e+00 0.0000000000000000e+00 0.0000000000000000e+00  0.0000000000000000e+00 0.0000000000000000e+00 0.0000000000000000e+00  0.0000000000000000e+00 0.0000000000000000e+00 0.0000000000000000e+00  2.1654790434156634e-02 -2.1987790700719913e-02 0.0000000000000000e+00  5.6016693944277995e-02 -2.4426360463007422e-02 0.0000000000000000e+00  9.2621169261836320e-02 -2.5499948736876339e-02 0.0000000000000000e+00  1.3202949377562126e-01 -2.7318648723893411e-02 0.0000000000000000e+00  1.7392072529229219e-01 -2.8159301353640448e-02 0.0000000000000000e+00  2.1647838862013469e-01 -2.7849409550877047e-02 0.0000000000000000e+00  2.5841634551459042e-01 -2.7126718370576959e-02 0.0000000000000000e+00  2.9949047222571162e-01 -2.6772480768817830e-02 0.0000000000000000e+00  3.3987665051142940e-01 -2.7037743713622192e-02 0.0000000000000000e+00  3.6854092846727993e-01 -2.9394926310966352e-02 0.0000000000000000e+00  0.0000000000000000e+00 0.0000000000000000e+00 0.0000000000000000e+00  2.2665264232116109e-02 -5.5641308947035895e-02 0.0000000000000000e+00  5.8501145106951633e-02 -6.1602199893275138e-02 0.0000000000000000e+00  9.7759329023917860e-02 -6.5804420878888173e-02 0.0000000000000000e+00  1.4154250552340919e-01 -7.1670842776772270e-02 0.0000000000000000e+00  1.8876585474562349e-01 -7.4560677404653955e-02 0.0000000000000000e+00  2.3656546431615766e-01 -7.3956688476336380e-02 0.0000000000000000e+00  2.8212647779411537e-01 -7.1775504837441967e-02 0.0000000000000000e+00  3.2385967825510636e-01 -6.9106763054747278e-02 0.0000000000000000e+00  3.5826267815390350e-01 -6.4465578352974576e-02 0.0000000000000000e+00  3.7636550965494442e-01 -5.9915694707322012e-02 0.0000000000000000e+00  0.0000000000000000e+00 0.0000000000000000e+00 0.0000000000000000e+00  2.2475013663116834e-02 -8.9161487889832206e-02 0.0000000000000000e+00  5.8428935461247312e-02 -9.9177385142063645e-02 0.0000000000000000e+00  9.8479170065036509e-02 -1.0790646713210802e-01 0.0000000000000000e+00  1.4336513103759513e-01 -1.1864050140111614e-01 0.0000000000000000e+00  1.9080961886564568e-01 -1.2314798672793476e-01 0.0000000000000000e+00  2.3700706417395936e-01 -1.2034969437620996e-01 0.0000000000000000e+00  2.7831292910783806e-01 -1.1274949262375049e-01 0.0000000000000000e+00  3.1277550547204441e-01 -1.0205070583748764e-01 0.0000000000000000e+00  3.3873644871346509e-01 -8.7340362202517230e-02 0.0000000000000000e+00  3.4489071195456411e-01 -6.7216809520629445e-02 0.0000000000000000e+00  0.0000000000000000e+00 0.0000000000000000e+00 0.0000000000000000e+00  2.2543417357021558e-02 -1.2270182126415090e-01 0.0000000000000000e+00  5.8319362984690329e-02 -1.3695093670727418e-01 0.0000000000000000e+00  9.8033572277219830e-02 -1.4997146787067742e-01 0.0000000000000000e+00  1.4147751329782168e-01 -1.6377591184463169e-01 0.0000000000000000e+00  1.8555666675177512e-01 -1.6704639254233586e-01 0.0000000000000000e+00  2.2739429425686697e-01 -1.5989454085758514e-01 0.0000000000000000e+00  2.6610404723293407e-01 -1.4724652305689861e-01 0.0000000000000000e+00  3.0271475625355015e-01 -1.3555570785704471e-01 0.0000000000000000e+00  3.3261584144370077e-01 -1.2180699221905959e-01 0.0000000000000000e+00  3.9772977631799622e-01 -7.9621585438970160e-02 0.0000000000000000e+00  0.0000000000000000e+00 0.0000000000000000e+00 0.0000000000000000e+00  2.0852061849654057e-02 -1.5513507572799193e-01 0.0000000000000000e+00  5.2946926363231540e-02 -1.7354607787434129e-01 0.0000000000000000e+00  8.7908040209697946e-02 -1.9119837014058677e-01 0.0000000000000000e+00  1.2433500352425098e-01 -2.0840384136490667e-01 0.0000000000000000e+00  1.5974133740119859e-01 -2.1357965938240664e-01 0.0000000000000000e+00  1.9629029442786319e-01 -2.0953560884256359e-01 0.0000000000000000e+00  2.4065403335874910e-01 -2.0087814687026495e-01 0.0000000000000000e+00  2.9608248020047867e-01 -1.8918950712690349e-01 0.0000000000000000e+00  3.5015152361693092e-01 -1.5935920006635340e-01 0.0000000000000000e+00  0.0000000000000000e+00 0.0000000000000000e+00 0.0000000000000000e+00  0.0000000000000000e+00 0.0000000000000000e+00 0.0000000000000000e+00  1.6490225185728697e-02 -1.8203471132085994e-01 0.0000000000000000e+00  3.9890026772708344e-02 -2.0090065030644633e-01 0.0000000000000000e+00  6.4234088395524233e-02 -2.1764261575995283e-01 0.0000000000000000e+00  8.8294695998084816e-02 -2.2851707196204163e-01 0.0000000000000000e+00  1.1278899492567988e-01 -2.2331279485788563e-01 0.0000000000000000e+00  1.4592351549852522e-01 -2.1145876761147669e-01 0.0000000000000000e+00  1.9888590484220769e-01 -2.0897661582706800e-01 0.0000000000000000e+00  2.8170849654442687e-01 -2.2433984051645306e-01 0.0000000000000000e+00  3.5967632473921357e-01 -2.0705227401368048e-01 0.0000000000000000e+00  0.0000000000000000e+00 0.0000000000000000e+00 0.0000000000000000e+00  0.0000000000000000e+00 0.0000000000000000e+00 0.0000000000000000e+00  8.1473243231103484e-03 -1.9741488441821484e-01 0.0000000000000000e+00  1.4602616786722276e-02 -2.1872269263473465e-01 0.0000000000000000e+00  2.0088381583719676e-02 -2.4592614441020297e-01 0.0000000000000000e+00  2.7635922408852098e-02 -2.7085522279256563e-01 0.0000000000000000e+00  3.9337128087690083e-02 -2.9550647534993746e-01 0.0000000000000000e+00  7.1942856944029715e-02 -3.4970190756914438e-01 0.0000000000000000e+00  1.5319329486588512e-01 -4.3653935558810963e-01 0.0000000000000000e+00  2.9813908953518642e-01 -5.0453978518788711e-01 0.0000000000000000e+00  3.9647243916630098e-01 -4.2697034848594428e-01 0.0000000000000000e+00  0.0000000000000000e+00 0.0000000000000000e+00 0.0000000000000000e+00  0.0000000000000000e+00 0.0000000000000000e+00 0.0000000000000000e+00  -5.5279877398886259e-03 -1.9854099160785177e-01 0.0000000000000000e+00  -2.0372210684036433e-02 -2.1268304573352864e-01 0.0000000000000000e+00  -2.6700035673346292e-02 -2.2479583262320724e-01 0.0000000000000000e+00  -8.5057840933498319e-03 -2.1635687712188423e-01 0.0000000000000000e+00  2.2394409322486646e-02 -2.0133349208550294e-01 0.0000000000000000e+00  9.0906465415793364e-02 -2.1557810641774197e-01 0.0000000000000000e+00  2.0286033814546339e-01 -2.3645684852547325e-01 0.0000000000000000e+00  3.2350966674806220e-01 -2.7545332912104181e-01 0.0000000000000000e+00  3.9875524915840094e-01 -4.0461732010563140e-01 0.0000000000000000e+00  0.0000000000000000e+00 0.0000000000000000e+00 0.0000000000000000e+00  0.0000000000000000e+00 0.0000000000000000e+00 0.0000000000000000e+00  -2.1676645949560189e-02 -1.6416707360235794e-01 0.0000000000000000e+00  -6.4612796103213702e-02 -1.7734327685493598e-01 0.0000000000000000e+00  -8.9419199718321796e-02 -2.5381155230208358e-01 0.0000000000000000e+00  -4.7313130436241795e-02 -4.0566525623796290e-01 0.0000000000000000e+00  5.0382275963581066e-02 -5.2703170356250728e-01 0.0000000000000000e+00  9.9174037523872785e-02 -6.7423128172042868e-01 0.0000000000000000e+00  1.3014016996458119e-01 -8.7475340523527445e-01 0.0000000000000000e+00  1.6138852352594091e-01 -1.1047830391260225e+00 0.0000000000000000e+00  4.0885721012355475e-01 -1.2439175987175994e+00 0.0000000000000000e+00  0.0000000000000000e+00 0.0000000000000000e+00 0.0000000000000000e+00  0.0000000000000000e+00 0.0000000000000000e+00 0.0000000000000000e+00  -3.2136743502511153e-02 -1.3541323961356261e-01 0.0000000000000000e+00  -9.6002621075931924e-02 -1.4698008011528974e-01 0.0000000000000000e+00  -1.5054798322333793e-01 -2.4676773453740378e-01 0.0000000000000000e+00  -1.0873708676322326e-01 -3.9320706668205219e-01 0.0000000000000000e+00  0.0000000000000000e+00 0.0000000000000000e+00 0.0000000000000000e+00  0.0000000000000000e+00 0.0000000000000000e+00 0.0000000000000000e+00  0.0000000000000000e+00 0.0000000000000000e+00 0.0000000000000000e+00  0.0000000000000000e+00 0.0000000000000000e+00 0.0000000000000000e+00  0.0000000000000000e+00 0.0000000000000000e+00 0.0000000000000000e+00  0.0000000000000000e+00 0.0000000000000000e+00 0.0000000000000000e+00  </DataArray> 
</PointData> 
</Piece>
</UnstructuredGrid>
</VTKFile>