<?xml version="1.0"?>
<VTKFile type="UnstructuredGrid"  version="0.1"  >
<UnstructuredGrid>
<Piece  NumberOfPoints="121" NumberOfCells="200">
<Points>
<DataArray  type="Float64"  NumberOfComponents="3"  format="ascii">0 0 0  0.1 0 0  0.2 0 0  0.3 0 0  0.4 0 0  0.5 0 0  0.6 0 0  0.7 0 0  0.8 0 0  0.9 0 0  1 0 0  0 0.1 0  0.1 0.1 0  0.2 0.1 0  0.3 0.1 0  0.4 0.1 0  0.5 0.1 0  0.6 0.1 0  0.7 0.1 0  0.8 0.1 0  0.9 0.1 0  1 0.1 0  0 0.2 0  0.1 0.2 0  0.2 0.2 0  0.3 0.2 0  0.4 0.2 0  0.5 0.2 0  0.6 0.2 0  0.7 0.2 0  0.8 0.2 0  0.9 0.2 0  1 0.2 0  0 0.3 0  0.1 0.3 0  0.2 0.3 0  0.3 0.3 0  0.4 0.3 0  0.5 0.3 0  0.6 0.3 0  0.7 0.3 0  0.8 0.3 0  0.9 0.3 0  1 0.3 0  0 0.4 0  0.1 0.4 0  0.2 0.4 0  0.3 0.4 0  0.4 0.4 0  0.5 0.4 0  0.6 0.4 0  0.7 0.4 0  0.8 0.4 0  0.9 0.4 0  1 0.4 0  0 0.5 0  0.1 0.5 0  0.2 0.5 0  0.3 0.5 0  0.4 0.5 0  0.5 0.5 0  0.6 0.5 0  0.7 0.5 0  0.8 0.5 0  0.9 0.5 0  1 0.5 0  0 0.6 0  0.1 0.6 0  0.2 0.6 0  0.3 0.6 0  0.4 0.6 0  0.5 0.6 0  0.6 0.6 0  0.7 0.6 0  0.8 0.6 0  0.9 0.6 0  1 0.6 0  0 0.7 0  0.1 0.7 0  0.2 0.7 0  0.3 0.7 0  0.4 0.7 0  0.5 0.7 0  0.6 0.7 0  0.7 0.7 0  0.8 0.7 0  0.9 0.7 0  1 0.7 0  0 0.8 0  0.1 0.8 0  0.2 0.8 0  0.3 0.8 0  0.4 0.8 0  0.5 0.8 0  0.6 0.8 0  0.7 0.8 0  0.8 0.8 0  0.9 0.8 0  1 0.8 0  0 0.9 0  0.1 0.9 0  0.2 0.9 0  0.3 0.9 0  0.4 0.9 0  0.5 0.9 0  0.6 0.9 0  0.7 0.9 0  0.8 0.9 0  0.9 0.9 0  1 0.9 0  0 1 0  0.1 1 0  0.2 1 0  0.3 1 0  0.4 1 0  0.5 1 0  0.6 1 0  0.7 1 0  0.8 1 0  0.9 1 0  1 1 0  </DataArray>
</Points>
<Cells>
<DataArray  type="UInt32"  Name="connectivity"  format="ascii">0 1 12  0 11 12  1 2 13  1 12 13  2 3 14  2 13 14  3 4 15  3 14 15  4 5 16  4 15 16  5 6 17  5 16 17  6 7 18  6 17 18  7 8 19  7 18 19  8 9 20  8 19 20  9 10 21  9 20 21  11 12 23  11 22 23  12 13 24  12 23 24  13 14 25  13 24 25  14 15 26  14 25 26  15 16 27  15 26 27  16 17 28  16 27 28  17 18 29  17 28 29  18 19 30  18 29 30  19 20 31  19 30 31  20 21 32  20 31 32  22 23 34  22 33 34  23 24 35  23 34 35  24 25 36  24 35 36  25 26 37  25 36 37  26 27 38  26 37 38  27 28 39  27 38 39  28 29 40  28 39 40  29 30 41  29 40 41  30 31 42  30 41 42  31 32 43  31 42 43  33 34 45  33 44 45  34 35 46  34 45 46  35 36 47  35 46 47  36 37 48  36 47 48  37 38 49  37 48 49  38 39 50  38 49 50  39 40 51  39 50 51  40 41 52  40 51 52  41 42 53  41 52 53  42 43 54  42 53 54  44 45 56  44 55 56  45 46 57  45 56 57  46 47 58  46 57 58  47 48 59  47 58 59  48 49 60  48 59 60  49 50 61  49 60 61  50 51 62  50 61 62  51 52 63  51 62 63  52 53 64  52 63 64  53 54 65  53 64 65  55 56 67  55 66 67  56 57 68  56 67 68  57 58 69  57 68 69  58 59 70  58 69 70  59 60 71  59 70 71  60 61 72  60 71 72  61 62 73  61 72 73  62 63 74  62 73 74  63 64 75  63 74 75  64 65 76  64 75 76  66 67 78  66 77 78  67 68 79  67 78 79  68 69 80  68 79 80  69 70 81  69 80 81  70 71 82  70 81 82  71 72 83  71 82 83  72 73 84  72 83 84  73 74 85  73 84 85  74 75 86  74 85 86  75 76 87  75 86 87  77 78 89  77 88 89  78 79 90  78 89 90  79 80 91  79 90 91  80 81 92  80 91 92  81 82 93  81 92 93  82 83 94  82 93 94  83 84 95  83 94 95  84 85 96  84 95 96  85 86 97  85 96 97  86 87 98  86 97 98  88 89 100  88 99 100  89 90 101  89 100 101  90 91 102  90 101 102  91 92 103  91 102 103  92 93 104  92 103 104  93 94 105  93 104 105  94 95 106  94 105 106  95 96 107  95 106 107  96 97 108  96 107 108  97 98 109  97 108 109  99 100 111  99 110 111  100 101 112  100 111 112  101 102 113  101 112 113  102 103 114  102 113 114  103 104 115  103 114 115  104 105 116  104 115 116  105 106 117  105 116 117  106 107 118  106 117 118  107 108 119  107 118 119  108 109 120  108 119 120  </DataArray>
<DataArray  type="UInt32"  Name="offsets"  format="ascii">3 6 9 12 15 18 21 24 27 30 33 36 39 42 45 48 51 54 57 60 63 66 69 72 75 78 81 84 87 90 93 96 99 102 105 108 111 114 117 120 123 126 129 132 135 138 141 144 147 150 153 156 159 162 165 168 171 174 177 180 183 186 189 192 195 198 201 204 207 210 213 216 219 222 225 228 231 234 237 240 243 246 249 252 255 258 261 264 267 270 273 276 279 282 285 288 291 294 297 300 303 306 309 312 315 318 321 324 327 330 333 336 339 342 345 348 351 354 357 360 363 366 369 372 375 378 381 384 387 390 393 396 399 402 405 408 411 414 417 420 423 426 429 432 435 438 441 444 447 450 453 456 459 462 465 468 471 474 477 480 483 486 489 492 495 498 501 504 507 510 513 516 519 522 525 528 531 534 537 540 543 546 549 552 555 558 561 564 567 570 573 576 579 582 585 588 591 594 597 600 </DataArray>
<DataArray  type="UInt8"  Name="types"  format="ascii">5 5 5 5 5 5 5 5 5 5 5 5 5 5 5 5 5 5 5 5 5 5 5 5 5 5 5 5 5 5 5 5 5 5 5 5 5 5 5 5 5 5 5 5 5 5 5 5 5 5 5 5 5 5 5 5 5 5 5 5 5 5 5 5 5 5 5 5 5 5 5 5 5 5 5 5 5 5 5 5 5 5 5 5 5 5 5 5 5 5 5 5 5 5 5 5 5 5 5 5 5 5 5 5 5 5 5 5 5 5 5 5 5 5 5 5 5 5 5 5 5 5 5 5 5 5 5 5 5 5 5 5 5 5 5 5 5 5 5 5 5 5 5 5 5 5 5 5 5 5 5 5 5 5 5 5 5 5 5 5 5 5 5 5 5 5 5 5 5 5 5 5 5 5 5 5 5 5 5 5 5 5 5 5 5 5 5 5 5 5 5 5 5 5 5 5 5 5 5 5 </DataArray>
</Cells>
<PointData  Vectors="f_22"> 
<DataArray  type="Float64"  Name="f_22"  NumberOfComponents="3" format="ascii">0.0000000000000000e+00 0.0000000000000000e+00 0.0000000000000000e+00  0.0000000000000000e+00 0.0000000000000000e+00 0.0000000000000000e+00  0.0000000000000000e+00 0.0000000000000000e+00 0.0000000000000000e+00  0.0000000000000000e+00 0.0000000000000000e+00 0.0000000000000000e+00  0.0000000000000000e+00 0.0000000000000000e+00 0.0000000000000000e+00  0.0000000000000000e+00 0.0000000000000000e+00 0.0000000000000000e+00  0.0000000000000000e+00 0.0000000000000000e+00 0.0000000000000000e+00  0.0000000000000000e+00 0.0000000000000000e+00 0.0000000000000000e+00  0.0000000000000000e+00 0.0000000000000000e+00 0.0000000000000000e+00  0.0000000000000000e+00 0.0000000000000000e+00 0.0000000000000000e+00  0.0000000000000000e+00 0.0000000000000000e+00 0.0000000000000000e+00  0.0000000000000000e+00 0.0000000000000000e+00 0.0000000000000000e+00  2.0397863640816808e-02 -2.1555334567883108e-02 0.0000000000000000e+00  6.9378460034680636e-02 -3.5084450881553667e-02 0.0000000000000000e+00  1.3059693245434545e-01 -3.9025450495987025e-02 0.0000000000000000e+00  1.9522013876239980e-01 -4.0262838072556671e-02 0.0000000000000000e+00  2.6130093880551408e-01 -4.1208455740519921e-02 0.0000000000000000e+00  3.2872881774943014e-01 -4.2260531292596527e-02 0.0000000000000000e+00  3.9757302821892987e-01 -4.2991606034379792e-02 0.0000000000000000e+00  4.6661669534082140e-01 -4.2264330674605687e-02 0.0000000000000000e+00  5.3203396751840382e-01 -3.9565869905140827e-02 0.0000000000000000e+00  5.8229668901913079e-01 -3.3241382121611103e-02 0.0000000000000000e+00  0.0000000000000000e+00 0.0000000000000000e+00 0.0000000000000000e+00  2.7002216894045018e-02 -6.5334257000093737e-02 0.0000000000000000e+00  8.6326146759741623e-02 -9.9615259247811644e-02 0.0000000000000000e+00  1.5882136997037827e-01 -1.1004513554333788e-01 0.0000000000000000e+00  2.3500042306636332e-01 -1.1303176584016886e-01 0.0000000000000000e+00  3.1266798960457154e-01 -1.1497712575242638e-01 0.0000000000000000e+00  3.9181875699693108e-01 -1.1760698525689350e-01 0.0000000000000000e+00  4.7313634743022781e-01 -1.2088761152331301e-01 0.0000000000000000e+00  5.5825794890973213e-01 -1.2310032237478385e-01 0.0000000000000000e+00  6.4209822009375361e-01 -1.1955976120627132e-01 0.0000000000000000e+00  7.1767095942961567e-01 -1.0260938865147887e-01 0.0000000000000000e+00  0.0000000000000000e+00 0.0000000000000000e+00 0.0000000000000000e+00  2.7084252279755694e-02 -1.1496667294135048e-01 0.0000000000000000e+00  8.7359845051533103e-02 -1.7114045788241417e-01 0.0000000000000000e+00  1.6069219086583381e-01 -1.8862324826862967e-01 0.0000000000000000e+00  2.3734420772037029e-01 -1.9425107407410647e-01 0.0000000000000000e+00  3.1508881471348987e-01 -1.9822346226158066e-01 0.0000000000000000e+00  3.9410488175224867e-01 -2.0328491898325679e-01 0.0000000000000000e+00  4.7578806272890878e-01 -2.0890603701612248e-01 0.0000000000000000e+00  5.6038140762694366e-01 -2.1144624854815433e-01 0.0000000000000000e+00  6.6530163501218031e-01 -2.0606222723307105e-01 0.0000000000000000e+00  7.5225179437764966e-01 -1.9220753636658447e-01 0.0000000000000000e+00  0.0000000000000000e+00 0.0000000000000000e+00 0.0000000000000000e+00  2.7382482617793993e-02 -1.6114205039969384e-01 0.0000000000000000e+00  8.7164897803358912e-02 -2.3588592442178824e-01 0.0000000000000000e+00  1.5987956154436517e-01 -2.5679065921003891e-01 0.0000000000000000e+00  2.3588428059788255e-01 -2.6129030812399573e-01 0.0000000000000000e+00  3.1213213631901771e-01 -2.6263044818854542e-01 0.0000000000000000e+00  3.8750326605251728e-01 -2.6605682099216477e-01 0.0000000000000000e+00  4.6305947819572940e-01 -2.7668011579589002e-01 0.0000000000000000e+00  5.3626975211376093e-01 -2.9471930464629253e-01 0.0000000000000000e+00  5.9862819623175134e-01 -3.1585586826660961e-01 0.0000000000000000e+00  8.1727233748437933e-01 -3.5869298578407621e-01 0.0000000000000000e+00  0.0000000000000000e+00 0.0000000000000000e+00 0.0000000000000000e+00  2.6525423362742960e-02 -2.1367126063125119e-01 0.0000000000000000e+00  8.4417506481832924e-02 -3.1459142652839395e-01 0.0000000000000000e+00  1.5625868943204618e-01 -3.4919415129445375e-01 0.0000000000000000e+00  2.3272528723768426e-01 -3.6173780372399278e-01 0.0000000000000000e+00  3.0793677956098764e-01 -3.6723402315441789e-01 0.0000000000000000e+00  3.7849788179108490e-01 -3.7484290478836380e-01 0.0000000000000000e+00  4.4641344002897304e-01 -3.8871827822679389e-01 0.0000000000000000e+00  5.0958884761243084e-01 -3.9824900596189994e-01 0.0000000000000000e+00  4.9761131414013737e-01 -3.5572965850350752e-01 0.0000000000000000e+00  0.0000000000000000e+00 0.0000000000000000e+00 0.0000000000000000e+00  0.0000000000000000e+00 0.0000000000000000e+00 0.0000000000000000e+00  2.6575810144801031e-02 -2.5307994767276831e-01 0.0000000000000000e+00  8.2626337861021096e-02 -3.6247843778906536e-01 0.0000000000000000e+00  1.5361772826366149e-01 -3.9068695526071923e-01 0.0000000000000000e+00  2.3211693023763028e-01 -3.9115342744509596e-01 0.0000000000000000e+00  3.0898653834670503e-01 -3.7812830834135391e-01 0.0000000000000000e+00  3.7066503118008304e-01 -3.6010811760884015e-01 0.0000000000000000e+00  4.1766420004470262e-01 -3.6155804110806283e-01 0.0000000000000000e+00  4.6611800620354804e-01 -4.0143930074128770e-01 0.0000000000000000e+00  4.7170613496512193e-01 -4.0549664092669258e-01 0.0000000000000000e+00  0.0000000000000000e+00 0.0000000000000000e+00 0.0000000000000000e+00  0.0000000000000000e+00 0.0000000000000000e+00 0.0000000000000000e+00  2.2556706409069784e-02 -3.0426627130302292e-01 0.0000000000000000e+00  6.7212208768862247e-02 -4.4816482696146581e-01 0.0000000000000000e+00  1.3135719384590877e-01 -5.2200973703185194e-01 0.0000000000000000e+00  2.1770286036952516e-01 -5.6759576798806066e-01 0.0000000000000000e+00  2.9595389993795618e-01 -5.5794191123385339e-01 0.0000000000000000e+00  3.2980614024591443e-01 -5.3097849675397080e-01 0.0000000000000000e+00  3.5223270669871276e-01 -5.6369578343232352e-01 0.0000000000000000e+00  4.0061078406876599e-01 -5.9853903752044646e-01 0.0000000000000000e+00  4.3679345782438372e-01 -5.6040182168150277e-01 0.0000000000000000e+00  0.0000000000000000e+00 0.0000000000000000e+00 0.0000000000000000e+00  0.0000000000000000e+00 0.0000000000000000e+00 0.0000000000000000e+00  1.8680391897535252e-02 -3.2892196593168177e-01 0.0000000000000000e+00  5.6377964127222145e-02 -4.6889347497414707e-01 0.0000000000000000e+00  1.2047528188472242e-01 -5.2532673409687891e-01 0.0000000000000000e+00  2.0380617628882722e-01 -5.2594754240848962e-01 0.0000000000000000e+00  2.5820153274743579e-01 -3.9934388668274429e-01 0.0000000000000000e+00  2.6083566104519895e-01 -2.9163584878517368e-01 0.0000000000000000e+00  2.5612364847579389e-01 -2.8388351813633378e-01 0.0000000000000000e+00  2.5227802493083767e-01 -3.5470310415379763e-01 0.0000000000000000e+00  2.6162411119601153e-01 -5.1321168529478933e-01 0.0000000000000000e+00  0.0000000000000000e+00 0.0000000000000000e+00 0.0000000000000000e+00  0.0000000000000000e+00 0.0000000000000000e+00 0.0000000000000000e+00  1.2090403927642695e-02 -3.6331064882237418e-01 0.0000000000000000e+00  3.2396248807698973e-02 -5.3221547819254367e-01 0.0000000000000000e+00  6.1294910982196374e-02 -6.6000314784789549e-01 0.0000000000000000e+00  9.7931680369624949e-02 -7.8147830927830919e-01 0.0000000000000000e+00  1.2650091151955106e-01 -7.0086208814156103e-01 0.0000000000000000e+00  7.7071420849126535e-02 -6.7734194641420364e-01 0.0000000000000000e+00  8.1215089172984228e-02 -7.9234522964725662e-01 0.0000000000000000e+00  8.0939624955915127e-02 -8.9999822432653742e-01 0.0000000000000000e+00  1.9071565907204865e-01 -8.7688264419106565e-01 0.0000000000000000e+00  0.0000000000000000e+00 0.0000000000000000e+00 0.0000000000000000e+00  0.0000000000000000e+00 0.0000000000000000e+00 0.0000000000000000e+00  7.5960261262794752e-03 -3.6793445043694639e-01 0.0000000000000000e+00  1.9382570408169923e-02 -5.2350038291186107e-01 0.0000000000000000e+00  3.5065767106210635e-02 -6.2912047328204157e-01 0.0000000000000000e+00  4.5859212815562954e-02 -6.7786727151918702e-01 0.0000000000000000e+00  0.0000000000000000e+00 0.0000000000000000e+00 0.0000000000000000e+00  0.0000000000000000e+00 0.0000000000000000e+00 0.0000000000000000e+00  0.0000000000000000e+00 0.0000000000000000e+00 0.0000000000000000e+00  0.0000000000000000e+00 0.0000000000000000e+00 0.0000000000000000e+00  0.0000000000000000e+00 0.0000000000000000e+00 0.0000000000000000e+00  0.0000000000000000e+00 0.0000000000000000e+00 0.0000000000000000e+00  </DataArray> 
</PointData> 
</Piece>
</UnstructuredGrid>
</VTKFile>