<?xml version="1.0"?>
<VTKFile type="UnstructuredGrid"  version="0.1"  >
<UnstructuredGrid>
<Piece  NumberOfPoints="121" NumberOfCells="200">
<Points>
<DataArray  type="Float64"  NumberOfComponents="3"  format="ascii">0 0 0  0.1 0 0  0.2 0 0  0.3 0 0  0.4 0 0  0.5 0 0  0.6 0 0  0.7 0 0  0.8 0 0  0.9 0 0  1 0 0  0 0.1 0  0.1 0.1 0  0.2 0.1 0  0.3 0.1 0  0.4 0.1 0  0.5 0.1 0  0.6 0.1 0  0.7 0.1 0  0.8 0.1 0  0.9 0.1 0  1 0.1 0  0 0.2 0  0.1 0.2 0  0.2 0.2 0  0.3 0.2 0  0.4 0.2 0  0.5 0.2 0  0.6 0.2 0  0.7 0.2 0  0.8 0.2 0  0.9 0.2 0  1 0.2 0  0 0.3 0  0.1 0.3 0  0.2 0.3 0  0.3 0.3 0  0.4 0.3 0  0.5 0.3 0  0.6 0.3 0  0.7 0.3 0  0.8 0.3 0  0.9 0.3 0  1 0.3 0  0 0.4 0  0.1 0.4 0  0.2 0.4 0  0.3 0.4 0  0.4 0.4 0  0.5 0.4 0  0.6 0.4 0  0.7 0.4 0  0.8 0.4 0  0.9 0.4 0  1 0.4 0  0 0.5 0  0.1 0.5 0  0.2 0.5 0  0.3 0.5 0  0.4 0.5 0  0.5 0.5 0  0.6 0.5 0  0.7 0.5 0  0.8 0.5 0  0.9 0.5 0  1 0.5 0  0 0.6 0  0.1 0.6 0  0.2 0.6 0  0.3 0.6 0  0.4 0.6 0  0.5 0.6 0  0.6 0.6 0  0.7 0.6 0  0.8 0.6 0  0.9 0.6 0  1 0.6 0  0 0.7 0  0.1 0.7 0  0.2 0.7 0  0.3 0.7 0  0.4 0.7 0  0.5 0.7 0  0.6 0.7 0  0.7 0.7 0  0.8 0.7 0  0.9 0.7 0  1 0.7 0  0 0.8 0  0.1 0.8 0  0.2 0.8 0  0.3 0.8 0  0.4 0.8 0  0.5 0.8 0  0.6 0.8 0  0.7 0.8 0  0.8 0.8 0  0.9 0.8 0  1 0.8 0  0 0.9 0  0.1 0.9 0  0.2 0.9 0  0.3 0.9 0  0.4 0.9 0  0.5 0.9 0  0.6 0.9 0  0.7 0.9 0  0.8 0.9 0  0.9 0.9 0  1 0.9 0  0 1 0  0.1 1 0  0.2 1 0  0.3 1 0  0.4 1 0  0.5 1 0  0.6 1 0  0.7 1 0  0.8 1 0  0.9 1 0  1 1 0  </DataArray>
</Points>
<Cells>
<DataArray  type="UInt32"  Name="connectivity"  format="ascii">0 1 12  0 11 12  1 2 13  1 12 13  2 3 14  2 13 14  3 4 15  3 14 15  4 5 16  4 15 16  5 6 17  5 16 17  6 7 18  6 17 18  7 8 19  7 18 19  8 9 20  8 19 20  9 10 21  9 20 21  11 12 23  11 22 23  12 13 24  12 23 24  13 14 25  13 24 25  14 15 26  14 25 26  15 16 27  15 26 27  16 17 28  16 27 28  17 18 29  17 28 29  18 19 30  18 29 30  19 20 31  19 30 31  20 21 32  20 31 32  22 23 34  22 33 34  23 24 35  23 34 35  24 25 36  24 35 36  25 26 37  25 36 37  26 27 38  26 37 38  27 28 39  27 38 39  28 29 40  28 39 40  29 30 41  29 40 41  30 31 42  30 41 42  31 32 43  31 42 43  33 34 45  33 44 45  34 35 46  34 45 46  35 36 47  35 46 47  36 37 48  36 47 48  37 38 49  37 48 49  38 39 50  38 49 50  39 40 51  39 50 51  40 41 52  40 51 52  41 42 53  41 52 53  42 43 54  42 53 54  44 45 56  44 55 56  45 46 57  45 56 57  46 47 58  46 57 58  47 48 59  47 58 59  48 49 60  48 59 60  49 50 61  49 60 61  50 51 62  50 61 62  51 52 63  51 62 63  52 53 64  52 63 64  53 54 65  53 64 65  55 56 67  55 66 67  56 57 68  56 67 68  57 58 69  57 68 69  58 59 70  58 69 70  59 60 71  59 70 71  60 61 72  60 71 72  61 62 73  61 72 73  62 63 74  62 73 74  63 64 75  63 74 75  64 65 76  64 75 76  66 67 78  66 77 78  67 68 79  67 78 79  68 69 80  68 79 80  69 70 81  69 80 81  70 71 82  70 81 82  71 72 83  71 82 83  72 73 84  72 83 84  73 74 85  73 84 85  74 75 86  74 85 86  75 76 87  75 86 87  77 78 89  77 88 89  78 79 90  78 89 90  79 80 91  79 90 91  80 81 92  80 91 92  81 82 93  81 92 93  82 83 94  82 93 94  83 84 95  83 94 95  84 85 96  84 95 96  85 86 97  85 96 97  86 87 98  86 97 98  88 89 100  88 99 100  89 90 101  89 100 101  90 91 102  90 101 102  91 92 103  91 102 103  92 93 104  92 103 104  93 94 105  93 104 105  94 95 106  94 105 106  95 96 107  95 106 107  96 97 108  96 107 108  97 98 109  97 108 109  99 100 111  99 110 111  100 101 112  100 111 112  101 102 113  101 112 113  102 103 114  102 113 114  103 104 115  103 114 115  104 105 116  104 115 116  105 106 117  105 116 117  106 107 118  106 117 118  107 108 119  107 118 119  108 109 120  108 119 120  </DataArray>
<DataArray  type="UInt32"  Name="offsets"  format="ascii">3 6 9 12 15 18 21 24 27 30 33 36 39 42 45 48 51 54 57 60 63 66 69 72 75 78 81 84 87 90 93 96 99 102 105 108 111 114 117 120 123 126 129 132 135 138 141 144 147 150 153 156 159 162 165 168 171 174 177 180 183 186 189 192 195 198 201 204 207 210 213 216 219 222 225 228 231 234 237 240 243 246 249 252 255 258 261 264 267 270 273 276 279 282 285 288 291 294 297 300 303 306 309 312 315 318 321 324 327 330 333 336 339 342 345 348 351 354 357 360 363 366 369 372 375 378 381 384 387 390 393 396 399 402 405 408 411 414 417 420 423 426 429 432 435 438 441 444 447 450 453 456 459 462 465 468 471 474 477 480 483 486 489 492 495 498 501 504 507 510 513 516 519 522 525 528 531 534 537 540 543 546 549 552 555 558 561 564 567 570 573 576 579 582 585 588 591 594 597 600 </DataArray>
<DataArray  type="UInt8"  Name="types"  format="ascii">5 5 5 5 5 5 5 5 5 5 5 5 5 5 5 5 5 5 5 5 5 5 5 5 5 5 5 5 5 5 5 5 5 5 5 5 5 5 5 5 5 5 5 5 5 5 5 5 5 5 5 5 5 5 5 5 5 5 5 5 5 5 5 5 5 5 5 5 5 5 5 5 5 5 5 5 5 5 5 5 5 5 5 5 5 5 5 5 5 5 5 5 5 5 5 5 5 5 5 5 5 5 5 5 5 5 5 5 5 5 5 5 5 5 5 5 5 5 5 5 5 5 5 5 5 5 5 5 5 5 5 5 5 5 5 5 5 5 5 5 5 5 5 5 5 5 5 5 5 5 5 5 5 5 5 5 5 5 5 5 5 5 5 5 5 5 5 5 5 5 5 5 5 5 5 5 5 5 5 5 5 5 5 5 5 5 5 5 5 5 5 5 5 5 5 5 5 5 5 5 </DataArray>
</Cells>
<PointData  Vectors="f_22"> 
<DataArray  type="Float64"  Name="f_22"  NumberOfComponents="3" format="ascii">0.0000000000000000e+00 0.0000000000000000e+00 0.0000000000000000e+00  0.0000000000000000e+00 0.0000000000000000e+00 0.0000000000000000e+00  0.0000000000000000e+00 0.0000000000000000e+00 0.0000000000000000e+00  0.0000000000000000e+00 0.0000000000000000e+00 0.0000000000000000e+00  0.0000000000000000e+00 0.0000000000000000e+00 0.0000000000000000e+00  0.0000000000000000e+00 0.0000000000000000e+00 0.0000000000000000e+00  0.0000000000000000e+00 0.0000000000000000e+00 0.0000000000000000e+00  0.0000000000000000e+00 0.0000000000000000e+00 0.0000000000000000e+00  0.0000000000000000e+00 0.0000000000000000e+00 0.0000000000000000e+00  0.0000000000000000e+00 0.0000000000000000e+00 0.0000000000000000e+00  0.0000000000000000e+00 0.0000000000000000e+00 0.0000000000000000e+00  0.0000000000000000e+00 0.0000000000000000e+00 0.0000000000000000e+00  9.4087743654919730e-04 -1.2614335730930743e-03 0.0000000000000000e+00  -5.4727658196587568e-03 1.7606158260713943e-03 0.0000000000000000e+00  -1.1025433319815304e-02 -7.0090272199617519e-04 0.0000000000000000e+00  -1.1257895922812322e-02 -2.8978459797689565e-03 0.0000000000000000e+00  -8.7885084215290326e-03 -4.0252210804511898e-03 0.0000000000000000e+00  -3.0673992287482050e-03 -5.4263394748012648e-03 0.0000000000000000e+00  6.5431164036873742e-03 -9.2820797893154242e-03 0.0000000000000000e+00  2.6222221976096215e-02 -1.8300110621340609e-02 0.0000000000000000e+00  6.5339116459774860e-02 -3.0704052208499068e-02 0.0000000000000000e+00  9.4745802654585543e-02 -4.3829707331856066e-02 0.0000000000000000e+00  0.0000000000000000e+00 0.0000000000000000e+00 0.0000000000000000e+00  -4.3746542635975817e-03 7.0723406463706773e-03 0.0000000000000000e+00  -1.7510833605388691e-02 1.2296390893057257e-02 0.0000000000000000e+00  -2.6477504865326077e-02 3.3886910664297776e-03 0.0000000000000000e+00  -2.6795888671377867e-02 -4.3880331575559374e-03 0.0000000000000000e+00  -2.4331763209817319e-02 -8.5476017271003575e-03 0.0000000000000000e+00  -1.6878670218237583e-02 -1.2295404387315762e-02 0.0000000000000000e+00  -1.3397797638058687e-02 -2.2303695062304250e-02 0.0000000000000000e+00  -3.4018047328525592e-04 -4.0881031826449588e-02 0.0000000000000000e+00  9.2229268196830760e-03 -6.3425301279380897e-02 0.0000000000000000e+00  1.4837581465518159e-02 -8.1646917018387929e-02 0.0000000000000000e+00  0.0000000000000000e+00 0.0000000000000000e+00 0.0000000000000000e+00  -3.9251964457750633e-03 1.8440246746970507e-02 0.0000000000000000e+00  -1.5715292039954840e-02 2.4103232009478281e-02 0.0000000000000000e+00  -2.2205137470096486e-02 6.5539078896725087e-03 0.0000000000000000e+00  -1.9636728311894759e-02 -7.3854408388142447e-03 0.0000000000000000e+00  -1.7920467189577936e-02 -1.2693075926408314e-02 0.0000000000000000e+00  -1.2884948245767320e-02 -1.3852995028990574e-02 0.0000000000000000e+00  -3.1284637748150462e-02 -1.8673095629211833e-02 0.0000000000000000e+00  -4.1426284352416944e-02 -2.7588507967277839e-02 0.0000000000000000e+00  -1.0030225245395365e-01 -4.8664654231221204e-02 0.0000000000000000e+00  -1.1995940515025232e-01 -7.0842001065404489e-02 0.0000000000000000e+00  0.0000000000000000e+00 0.0000000000000000e+00 0.0000000000000000e+00  -3.1770709042391963e-03 2.8219327288054763e-02 0.0000000000000000e+00  -1.3205884675011130e-02 3.3651452652558526e-02 0.0000000000000000e+00  -1.8543971227424898e-02 7.5253478304748772e-03 0.0000000000000000e+00  -1.5803213725181644e-02 -1.0590030875394328e-02 0.0000000000000000e+00  -1.9008471236619518e-02 -1.3070565377972129e-02 0.0000000000000000e+00  -1.9255992022855630e-02 -5.0605599910028658e-03 0.0000000000000000e+00  -5.8247501262606208e-02 9.2449396174289419e-03 0.0000000000000000e+00  -7.5387270869724896e-02 2.2109207987856955e-02 0.0000000000000000e+00  -1.8323147520770905e-01 1.4145508241503423e-03 0.0000000000000000e+00  -1.8576561653233484e-01 -2.5357397487593518e-02 0.0000000000000000e+00  0.0000000000000000e+00 0.0000000000000000e+00 0.0000000000000000e+00  -4.3482108841916443e-03 3.7985347423159822e-02 0.0000000000000000e+00  -1.5534262579656824e-02 4.2933631007022320e-02 0.0000000000000000e+00  -2.3232120574955422e-02 9.4998696123425059e-03 0.0000000000000000e+00  -2.4547310668554822e-02 -9.8243577146222682e-03 0.0000000000000000e+00  -3.6700448661409459e-02 -6.8066197666502275e-03 0.0000000000000000e+00  -4.1130998376143250e-02 1.1437207735819585e-02 0.0000000000000000e+00  -8.3018573079418456e-02 4.0700139127713031e-02 0.0000000000000000e+00  -6.6859555789349989e-02 5.8766653973962663e-02 0.0000000000000000e+00  -1.4344018481032877e-01 3.5970456113115432e-02 0.0000000000000000e+00  0.0000000000000000e+00 0.0000000000000000e+00 0.0000000000000000e+00  0.0000000000000000e+00 0.0000000000000000e+00 0.0000000000000000e+00  -7.6614003291709549e-03 5.0945425764190568e-02 0.0000000000000000e+00  -2.4040801556274409e-02 5.5749149971552815e-02 0.0000000000000000e+00  -3.9119488051555379e-02 1.7292904246677836e-02 0.0000000000000000e+00  -5.1239429759088122e-02 6.9291852770726780e-05 0.0000000000000000e+00  -7.6404098250501679e-02 9.0791868484228558e-03 0.0000000000000000e+00  -8.5832443963443195e-02 3.0722533344782199e-02 0.0000000000000000e+00  -1.1849206053695553e-01 5.3014323091533054e-02 0.0000000000000000e+00  -6.3407249446658528e-02 5.1441322126406681e-02 0.0000000000000000e+00  -9.5798016637549208e-02 1.5874963509379437e-02 0.0000000000000000e+00  0.0000000000000000e+00 0.0000000000000000e+00 0.0000000000000000e+00  0.0000000000000000e+00 0.0000000000000000e+00 0.0000000000000000e+00  -1.2840768565864181e-02 7.0562908877741623e-02 0.0000000000000000e+00  -3.9633062764976773e-02 7.7054517973914979e-02 0.0000000000000000e+00  -6.8265438541879692e-02 3.8275098516307643e-02 0.0000000000000000e+00  -1.0107120475899568e-01 2.7335241309450004e-02 0.0000000000000000e+00  -1.4262590954471194e-01 3.8398819223709552e-02 0.0000000000000000e+00  -1.6279845106782476e-01 4.7901219539297754e-02 0.0000000000000000e+00  -1.7612026289046706e-01 3.9593122171101100e-02 0.0000000000000000e+00  -9.3762412616917742e-02 1.3147386872331567e-04 0.0000000000000000e+00  -7.7833336859408117e-02 -2.9969876925029237e-02 0.0000000000000000e+00  0.0000000000000000e+00 0.0000000000000000e+00 0.0000000000000000e+00  0.0000000000000000e+00 0.0000000000000000e+00 0.0000000000000000e+00  -1.8749251710824959e-02 9.9298117525729063e-02 0.0000000000000000e+00  -6.0158131985209182e-02 1.1328280655474643e-01 0.0000000000000000e+00  -1.0739234405101813e-01 8.3211442623344983e-02 0.0000000000000000e+00  -1.7617562883791402e-01 7.6693168916872140e-02 0.0000000000000000e+00  -2.3232499588388206e-01 7.6425685698048862e-02 0.0000000000000000e+00  -2.5594155949617620e-01 6.5940274362945819e-02 0.0000000000000000e+00  -2.3062433597013154e-01 2.1871482940180025e-02 0.0000000000000000e+00  -1.3899936843765626e-01 -7.2884833663026907e-02 0.0000000000000000e+00  -2.3192374807791766e-02 -1.0480152517155822e-01 0.0000000000000000e+00  0.0000000000000000e+00 0.0000000000000000e+00 0.0000000000000000e+00  0.0000000000000000e+00 0.0000000000000000e+00 0.0000000000000000e+00  -2.2253764193146761e-02 1.3716909601768590e-01 0.0000000000000000e+00  -7.4368583192588128e-02 1.7022896959438275e-01 0.0000000000000000e+00  -1.4480813068582166e-01 1.5866315792788058e-01 0.0000000000000000e+00  -2.6670288017277471e-01 1.6182615069321138e-01 0.0000000000000000e+00  -3.1489471598472774e-01 1.2888239305175844e-01 0.0000000000000000e+00  -2.9322011416520660e-01 3.3485325937775874e-02 0.0000000000000000e+00  -1.9699481209577663e-01 -1.5179519004615175e-01 0.0000000000000000e+00  -7.0041123117242698e-02 -3.7740667936481115e-01 0.0000000000000000e+00  1.8748337149920985e-01 -4.2460469846717153e-01 0.0000000000000000e+00  0.0000000000000000e+00 0.0000000000000000e+00 0.0000000000000000e+00  0.0000000000000000e+00 0.0000000000000000e+00 0.0000000000000000e+00  -2.0635776823312253e-02 1.6833635550249182e-01 0.0000000000000000e+00  -7.2207154509940752e-02 2.2186919398718785e-01 0.0000000000000000e+00  -1.7612481480534983e-01 2.4474440124412644e-01 0.0000000000000000e+00  -3.0582120633461279e-01 2.3663398285708778e-01 0.0000000000000000e+00  0.0000000000000000e+00 0.0000000000000000e+00 0.0000000000000000e+00  0.0000000000000000e+00 0.0000000000000000e+00 0.0000000000000000e+00  0.0000000000000000e+00 0.0000000000000000e+00 0.0000000000000000e+00  0.0000000000000000e+00 0.0000000000000000e+00 0.0000000000000000e+00  0.0000000000000000e+00 0.0000000000000000e+00 0.0000000000000000e+00  0.0000000000000000e+00 0.0000000000000000e+00 0.0000000000000000e+00  </DataArray> 
</PointData> 
</Piece>
</UnstructuredGrid>
</VTKFile>