<?xml version="1.0"?>
<VTKFile type="UnstructuredGrid"  version="0.1"  >
<UnstructuredGrid>
<Piece  NumberOfPoints="121" NumberOfCells="200">
<Points>
<DataArray  type="Float64"  NumberOfComponents="3"  format="ascii">0 0 0  0.1 0 0  0.2 0 0  0.3 0 0  0.4 0 0  0.5 0 0  0.6 0 0  0.7 0 0  0.8 0 0  0.9 0 0  1 0 0  0 0.1 0  0.1 0.1 0  0.2 0.1 0  0.3 0.1 0  0.4 0.1 0  0.5 0.1 0  0.6 0.1 0  0.7 0.1 0  0.8 0.1 0  0.9 0.1 0  1 0.1 0  0 0.2 0  0.1 0.2 0  0.2 0.2 0  0.3 0.2 0  0.4 0.2 0  0.5 0.2 0  0.6 0.2 0  0.7 0.2 0  0.8 0.2 0  0.9 0.2 0  1 0.2 0  0 0.3 0  0.1 0.3 0  0.2 0.3 0  0.3 0.3 0  0.4 0.3 0  0.5 0.3 0  0.6 0.3 0  0.7 0.3 0  0.8 0.3 0  0.9 0.3 0  1 0.3 0  0 0.4 0  0.1 0.4 0  0.2 0.4 0  0.3 0.4 0  0.4 0.4 0  0.5 0.4 0  0.6 0.4 0  0.7 0.4 0  0.8 0.4 0  0.9 0.4 0  1 0.4 0  0 0.5 0  0.1 0.5 0  0.2 0.5 0  0.3 0.5 0  0.4 0.5 0  0.5 0.5 0  0.6 0.5 0  0.7 0.5 0  0.8 0.5 0  0.9 0.5 0  1 0.5 0  0 0.6 0  0.1 0.6 0  0.2 0.6 0  0.3 0.6 0  0.4 0.6 0  0.5 0.6 0  0.6 0.6 0  0.7 0.6 0  0.8 0.6 0  0.9 0.6 0  1 0.6 0  0 0.7 0  0.1 0.7 0  0.2 0.7 0  0.3 0.7 0  0.4 0.7 0  0.5 0.7 0  0.6 0.7 0  0.7 0.7 0  0.8 0.7 0  0.9 0.7 0  1 0.7 0  0 0.8 0  0.1 0.8 0  0.2 0.8 0  0.3 0.8 0  0.4 0.8 0  0.5 0.8 0  0.6 0.8 0  0.7 0.8 0  0.8 0.8 0  0.9 0.8 0  1 0.8 0  0 0.9 0  0.1 0.9 0  0.2 0.9 0  0.3 0.9 0  0.4 0.9 0  0.5 0.9 0  0.6 0.9 0  0.7 0.9 0  0.8 0.9 0  0.9 0.9 0  1 0.9 0  0 1 0  0.1 1 0  0.2 1 0  0.3 1 0  0.4 1 0  0.5 1 0  0.6 1 0  0.7 1 0  0.8 1 0  0.9 1 0  1 1 0  </DataArray>
</Points>
<Cells>
<DataArray  type="UInt32"  Name="connectivity"  format="ascii">0 1 12  0 11 12  1 2 13  1 12 13  2 3 14  2 13 14  3 4 15  3 14 15  4 5 16  4 15 16  5 6 17  5 16 17  6 7 18  6 17 18  7 8 19  7 18 19  8 9 20  8 19 20  9 10 21  9 20 21  11 12 23  11 22 23  12 13 24  12 23 24  13 14 25  13 24 25  14 15 26  14 25 26  15 16 27  15 26 27  16 17 28  16 27 28  17 18 29  17 28 29  18 19 30  18 29 30  19 20 31  19 30 31  20 21 32  20 31 32  22 23 34  22 33 34  23 24 35  23 34 35  24 25 36  24 35 36  25 26 37  25 36 37  26 27 38  26 37 38  27 28 39  27 38 39  28 29 40  28 39 40  29 30 41  29 40 41  30 31 42  30 41 42  31 32 43  31 42 43  33 34 45  33 44 45  34 35 46  34 45 46  35 36 47  35 46 47  36 37 48  36 47 48  37 38 49  37 48 49  38 39 50  38 49 50  39 40 51  39 50 51  40 41 52  40 51 52  41 42 53  41 52 53  42 43 54  42 53 54  44 45 56  44 55 56  45 46 57  45 56 57  46 47 58  46 57 58  47 48 59  47 58 59  48 49 60  48 59 60  49 50 61  49 60 61  50 51 62  50 61 62  51 52 63  51 62 63  52 53 64  52 63 64  53 54 65  53 64 65  55 56 67  55 66 67  56 57 68  56 67 68  57 58 69  57 68 69  58 59 70  58 69 70  59 60 71  59 70 71  60 61 72  60 71 72  61 62 73  61 72 73  62 63 74  62 73 74  63 64 75  63 74 75  64 65 76  64 75 76  66 67 78  66 77 78  67 68 79  67 78 79  68 69 80  68 79 80  69 70 81  69 80 81  70 71 82  70 81 82  71 72 83  71 82 83  72 73 84  72 83 84  73 74 85  73 84 85  74 75 86  74 85 86  75 76 87  75 86 87  77 78 89  77 88 89  78 79 90  78 89 90  79 80 91  79 90 91  80 81 92  80 91 92  81 82 93  81 92 93  82 83 94  82 93 94  83 84 95  83 94 95  84 85 96  84 95 96  85 86 97  85 96 97  86 87 98  86 97 98  88 89 100  88 99 100  89 90 101  89 100 101  90 91 102  90 101 102  91 92 103  91 102 103  92 93 104  92 103 104  93 94 105  93 104 105  94 95 106  94 105 106  95 96 107  95 106 107  96 97 108  96 107 108  97 98 109  97 108 109  99 100 111  99 110 111  100 101 112  100 111 112  101 102 113  101 112 113  102 103 114  102 113 114  103 104 115  103 114 115  104 105 116  104 115 116  105 106 117  105 116 117  106 107 118  106 117 118  107 108 119  107 118 119  108 109 120  108 119 120  </DataArray>
<DataArray  type="UInt32"  Name="offsets"  format="ascii">3 6 9 12 15 18 21 24 27 30 33 36 39 42 45 48 51 54 57 60 63 66 69 72 75 78 81 84 87 90 93 96 99 102 105 108 111 114 117 120 123 126 129 132 135 138 141 144 147 150 153 156 159 162 165 168 171 174 177 180 183 186 189 192 195 198 201 204 207 210 213 216 219 222 225 228 231 234 237 240 243 246 249 252 255 258 261 264 267 270 273 276 279 282 285 288 291 294 297 300 303 306 309 312 315 318 321 324 327 330 333 336 339 342 345 348 351 354 357 360 363 366 369 372 375 378 381 384 387 390 393 396 399 402 405 408 411 414 417 420 423 426 429 432 435 438 441 444 447 450 453 456 459 462 465 468 471 474 477 480 483 486 489 492 495 498 501 504 507 510 513 516 519 522 525 528 531 534 537 540 543 546 549 552 555 558 561 564 567 570 573 576 579 582 585 588 591 594 597 600 </DataArray>
<DataArray  type="UInt8"  Name="types"  format="ascii">5 5 5 5 5 5 5 5 5 5 5 5 5 5 5 5 5 5 5 5 5 5 5 5 5 5 5 5 5 5 5 5 5 5 5 5 5 5 5 5 5 5 5 5 5 5 5 5 5 5 5 5 5 5 5 5 5 5 5 5 5 5 5 5 5 5 5 5 5 5 5 5 5 5 5 5 5 5 5 5 5 5 5 5 5 5 5 5 5 5 5 5 5 5 5 5 5 5 5 5 5 5 5 5 5 5 5 5 5 5 5 5 5 5 5 5 5 5 5 5 5 5 5 5 5 5 5 5 5 5 5 5 5 5 5 5 5 5 5 5 5 5 5 5 5 5 5 5 5 5 5 5 5 5 5 5 5 5 5 5 5 5 5 5 5 5 5 5 5 5 5 5 5 5 5 5 5 5 5 5 5 5 5 5 5 5 5 5 5 5 5 5 5 5 5 5 5 5 5 5 </DataArray>
</Cells>
<PointData  Vectors="f_22"> 
<DataArray  type="Float64"  Name="f_22"  NumberOfComponents="3" format="ascii">0.0000000000000000e+00 0.0000000000000000e+00 0.0000000000000000e+00  0.0000000000000000e+00 0.0000000000000000e+00 0.0000000000000000e+00  0.0000000000000000e+00 0.0000000000000000e+00 0.0000000000000000e+00  0.0000000000000000e+00 0.0000000000000000e+00 0.0000000000000000e+00  0.0000000000000000e+00 0.0000000000000000e+00 0.0000000000000000e+00  0.0000000000000000e+00 0.0000000000000000e+00 0.0000000000000000e+00  0.0000000000000000e+00 0.0000000000000000e+00 0.0000000000000000e+00  0.0000000000000000e+00 0.0000000000000000e+00 0.0000000000000000e+00  0.0000000000000000e+00 0.0000000000000000e+00 0.0000000000000000e+00  0.0000000000000000e+00 0.0000000000000000e+00 0.0000000000000000e+00  0.0000000000000000e+00 0.0000000000000000e+00 0.0000000000000000e+00  0.0000000000000000e+00 0.0000000000000000e+00 0.0000000000000000e+00  6.2998431179500077e-03 -6.5985627970076210e-03 0.0000000000000000e+00  8.6076599123102240e-03 -3.8794107518589152e-03 0.0000000000000000e+00  1.1274503420449056e-02 -5.8524365281232126e-03 0.0000000000000000e+00  1.8521142254427667e-02 -7.8512839002165598e-03 0.0000000000000000e+00  2.8259923235375392e-02 -8.7251698042889198e-03 0.0000000000000000e+00  4.0403055800353672e-02 -9.6666422419398688e-03 0.0000000000000000e+00  5.5540091369336381e-02 -1.2568194869281851e-02 0.0000000000000000e+00  7.8528517204711157e-02 -1.9676202225043075e-02 0.0000000000000000e+00  1.1647959235582345e-01 -2.9500270396907752e-02 0.0000000000000000e+00  1.4484350561664788e-01 -4.0603099888171783e-02 0.0000000000000000e+00  0.0000000000000000e+00 0.0000000000000000e+00 0.0000000000000000e+00  1.7667290117467092e-03 -7.3137517951703934e-03 0.0000000000000000e+00  -1.9116265177384110e-03 -2.2751379626553335e-03 0.0000000000000000e+00  -2.3929038862309433e-03 -9.7418606535184683e-03 0.0000000000000000e+00  4.7611771768306761e-03 -1.6855509662743864e-02 0.0000000000000000e+00  1.4813774218885710e-02 -2.0299444685761010e-02 0.0000000000000000e+00  2.8210175930383607e-02 -2.2867815853687853e-02 0.0000000000000000e+00  3.8365137732912773e-02 -3.0083804039026652e-02 0.0000000000000000e+00  5.3800970148863161e-02 -4.4247607771620831e-02 0.0000000000000000e+00  6.5768785317100259e-02 -6.1157068070787746e-02 0.0000000000000000e+00  7.1411907526621243e-02 -7.5037525815159489e-02 0.0000000000000000e+00  0.0000000000000000e+00 0.0000000000000000e+00 0.0000000000000000e+00  1.9060755053859869e-03 -4.9965326512833984e-03 0.0000000000000000e+00  -9.6143839298927264e-04 7.8174932535709368e-04 0.0000000000000000e+00  6.0846931101098014e-04 -1.4306785561336051e-02 0.0000000000000000e+00  1.0223049542300302e-02 -2.7187365633143574e-02 0.0000000000000000e+00  1.9898954941671019e-02 -3.1533126751735308e-02 0.0000000000000000e+00  3.0255344717829466e-02 -3.1045978405289987e-02 0.0000000000000000e+00  2.2312762655030013e-02 -3.2076297184939026e-02 0.0000000000000000e+00  1.3959908939247000e-02 -3.7110424213610001e-02 0.0000000000000000e+00  -2.8739912345506404e-02 -5.0457395839853467e-02 0.0000000000000000e+00  -4.8118107522555610e-02 -6.4442022106034086e-02 0.0000000000000000e+00  0.0000000000000000e+00 0.0000000000000000e+00 0.0000000000000000e+00  2.5245126956259310e-03 -3.9001150918621698e-03 0.0000000000000000e+00  1.1432984078890349e-03 1.9257546209155078e-03 0.0000000000000000e+00  3.8673815227276364e-03 -2.0866055733716467e-02 0.0000000000000000e+00  1.3528366691176566e-02 -3.7790537407576479e-02 0.0000000000000000e+00  1.9315613327588126e-02 -3.9435738082856338e-02 0.0000000000000000e+00  2.4177976197032026e-02 -2.9860313239771789e-02 0.0000000000000000e+00  1.3059657340665090e-03 -1.3302592205778592e-02 0.0000000000000000e+00  -1.5673774446810305e-02 -2.1289568069097060e-04 0.0000000000000000e+00  -8.5451640397799705e-02 -1.0736261155336786e-02 0.0000000000000000e+00  -9.3792658223510156e-02 -2.4742111189249315e-02 0.0000000000000000e+00  0.0000000000000000e+00 0.0000000000000000e+00 0.0000000000000000e+00  1.2275495715962216e-03 -2.6132068637676640e-03 0.0000000000000000e+00  -1.6408975868955969e-03 2.9971754138162026e-03 0.0000000000000000e+00  -1.3242864937884548e-03 -2.6404202695103487e-02 0.0000000000000000e+00  4.0515982419965010e-03 -4.4769014568749758e-02 0.0000000000000000e+00  2.3569717347181880e-03 -4.1617828980004948e-02 0.0000000000000000e+00  3.2206750006223929e-03 -2.2888598046432673e-02 0.0000000000000000e+00  -1.6796470096551153e-02 5.6681479210547630e-03 0.0000000000000000e+00  -5.3222715879378026e-03 2.2794401495900462e-02 0.0000000000000000e+00  -3.2813938423916410e-02 1.0753274497852308e-02 0.0000000000000000e+00  0.0000000000000000e+00 0.0000000000000000e+00 0.0000000000000000e+00  0.0000000000000000e+00 0.0000000000000000e+00 0.0000000000000000e+00  -2.4682315488228817e-03 2.3460883011470423e-03 0.0000000000000000e+00  -1.1237617920075375e-02 8.0373219289250741e-03 0.0000000000000000e+00  -1.8669161232984528e-02 -2.6145743440791489e-02 0.0000000000000000e+00  -2.4182257245913601e-02 -4.3120872977826033e-02 0.0000000000000000e+00  -3.7168923169535642e-02 -3.5194544595371316e-02 0.0000000000000000e+00  -4.0415047022272048e-02 -1.5193730774293025e-02 0.0000000000000000e+00  -4.5644308206175731e-02 3.4128645843350229e-03 0.0000000000000000e+00  3.8894116007787750e-03 1.7286992419498239e-03 0.0000000000000000e+00  3.0021101909380128e-02 -1.5633397168231131e-02 0.0000000000000000e+00  0.0000000000000000e+00 0.0000000000000000e+00 0.0000000000000000e+00  0.0000000000000000e+00 0.0000000000000000e+00 0.0000000000000000e+00  -8.5303699025749344e-03 1.5051078608899832e-02 0.0000000000000000e+00  -2.9005608545588001e-02 2.2391043351552002e-02 0.0000000000000000e+00  -5.0694553714341353e-02 -1.2411458074282273e-02 0.0000000000000000e+00  -7.6216452665426662e-02 -2.4250859586278463e-02 0.0000000000000000e+00  -1.0484094399771660e-01 -1.7705909130367445e-02 0.0000000000000000e+00  -1.1607193697297458e-01 -1.6430443599053234e-02 0.0000000000000000e+00  -9.8656199627222135e-02 -3.5559345051169387e-02 0.0000000000000000e+00  -1.5073418037046624e-02 -7.4702672596682132e-02 0.0000000000000000e+00  7.2633993894330201e-02 -8.1273213310872533e-02 0.0000000000000000e+00  0.0000000000000000e+00 0.0000000000000000e+00 0.0000000000000000e+00  0.0000000000000000e+00 0.0000000000000000e+00 0.0000000000000000e+00  -1.6246646230484559e-02 3.8628317681912432e-02 0.0000000000000000e+00  -5.3330918119725748e-02 5.2684643468001786e-02 0.0000000000000000e+00  -9.4419070912520484e-02 2.4603501363683007e-02 0.0000000000000000e+00  -1.5247257647017404e-01 1.5257125184046474e-02 0.0000000000000000e+00  -1.9442450658451577e-01 1.0241040847183483e-02 0.0000000000000000e+00  -1.9985717402741890e-01 -5.2040530820810435e-03 0.0000000000000000e+00  -1.4240570118315288e-01 -4.8864426149943324e-02 0.0000000000000000e+00  -3.2114683216576505e-02 -1.2965370685249916e-01 0.0000000000000000e+00  1.3736895902519458e-01 -1.5368584205903346e-01 0.0000000000000000e+00  0.0000000000000000e+00 0.0000000000000000e+00 0.0000000000000000e+00  0.0000000000000000e+00 0.0000000000000000e+00 0.0000000000000000e+00  -2.2344554473602531e-02 7.5917718719521798e-02 0.0000000000000000e+00  -7.4168641550227871e-02 1.0791097701710851e-01 0.0000000000000000e+00  -1.4290953311891055e-01 9.2645287363717674e-02 0.0000000000000000e+00  -2.4277091447046015e-01 7.5890959669313474e-02 0.0000000000000000e+00  -2.5703774539713603e-01 1.1823615283454192e-02 0.0000000000000000e+00  -1.9643291360713935e-01 -1.1809893238867132e-01 0.0000000000000000e+00  -7.7803288072094925e-02 -3.2690465132125157e-01 0.0000000000000000e+00  5.3431151592215662e-02 -5.6890720179822529e-01 0.0000000000000000e+00  3.3346064948897730e-01 -6.6241206063611158e-01 0.0000000000000000e+00  0.0000000000000000e+00 0.0000000000000000e+00 0.0000000000000000e+00  0.0000000000000000e+00 0.0000000000000000e+00 0.0000000000000000e+00  -2.3291412430492254e-02 1.0865332768708902e-01 0.0000000000000000e+00  -8.0845559364876016e-02 1.6000084010313939e-01 0.0000000000000000e+00  -1.8774022276712485e-01 1.6842803609313695e-01 0.0000000000000000e+00  -2.7641206762855491e-01 1.1154617741485311e-01 0.0000000000000000e+00  0.0000000000000000e+00 0.0000000000000000e+00 0.0000000000000000e+00  0.0000000000000000e+00 0.0000000000000000e+00 0.0000000000000000e+00  0.0000000000000000e+00 0.0000000000000000e+00 0.0000000000000000e+00  0.0000000000000000e+00 0.0000000000000000e+00 0.0000000000000000e+00  0.0000000000000000e+00 0.0000000000000000e+00 0.0000000000000000e+00  0.0000000000000000e+00 0.0000000000000000e+00 0.0000000000000000e+00  </DataArray> 
</PointData> 
</Piece>
</UnstructuredGrid>
</VTKFile>