<?xml version="1.0"?>
<VTKFile type="UnstructuredGrid"  version="0.1"  >
<UnstructuredGrid>
<Piece  NumberOfPoints="121" NumberOfCells="200">
<Points>
<DataArray  type="Float64"  NumberOfComponents="3"  format="ascii">0 0 0  0.1 0 0  0.2 0 0  0.3 0 0  0.4 0 0  0.5 0 0  0.6 0 0  0.7 0 0  0.8 0 0  0.9 0 0  1 0 0  0 0.1 0  0.1 0.1 0  0.2 0.1 0  0.3 0.1 0  0.4 0.1 0  0.5 0.1 0  0.6 0.1 0  0.7 0.1 0  0.8 0.1 0  0.9 0.1 0  1 0.1 0  0 0.2 0  0.1 0.2 0  0.2 0.2 0  0.3 0.2 0  0.4 0.2 0  0.5 0.2 0  0.6 0.2 0  0.7 0.2 0  0.8 0.2 0  0.9 0.2 0  1 0.2 0  0 0.3 0  0.1 0.3 0  0.2 0.3 0  0.3 0.3 0  0.4 0.3 0  0.5 0.3 0  0.6 0.3 0  0.7 0.3 0  0.8 0.3 0  0.9 0.3 0  1 0.3 0  0 0.4 0  0.1 0.4 0  0.2 0.4 0  0.3 0.4 0  0.4 0.4 0  0.5 0.4 0  0.6 0.4 0  0.7 0.4 0  0.8 0.4 0  0.9 0.4 0  1 0.4 0  0 0.5 0  0.1 0.5 0  0.2 0.5 0  0.3 0.5 0  0.4 0.5 0  0.5 0.5 0  0.6 0.5 0  0.7 0.5 0  0.8 0.5 0  0.9 0.5 0  1 0.5 0  0 0.6 0  0.1 0.6 0  0.2 0.6 0  0.3 0.6 0  0.4 0.6 0  0.5 0.6 0  0.6 0.6 0  0.7 0.6 0  0.8 0.6 0  0.9 0.6 0  1 0.6 0  0 0.7 0  0.1 0.7 0  0.2 0.7 0  0.3 0.7 0  0.4 0.7 0  0.5 0.7 0  0.6 0.7 0  0.7 0.7 0  0.8 0.7 0  0.9 0.7 0  1 0.7 0  0 0.8 0  0.1 0.8 0  0.2 0.8 0  0.3 0.8 0  0.4 0.8 0  0.5 0.8 0  0.6 0.8 0  0.7 0.8 0  0.8 0.8 0  0.9 0.8 0  1 0.8 0  0 0.9 0  0.1 0.9 0  0.2 0.9 0  0.3 0.9 0  0.4 0.9 0  0.5 0.9 0  0.6 0.9 0  0.7 0.9 0  0.8 0.9 0  0.9 0.9 0  1 0.9 0  0 1 0  0.1 1 0  0.2 1 0  0.3 1 0  0.4 1 0  0.5 1 0  0.6 1 0  0.7 1 0  0.8 1 0  0.9 1 0  1 1 0  </DataArray>
</Points>
<Cells>
<DataArray  type="UInt32"  Name="connectivity"  format="ascii">0 1 12  0 11 12  1 2 13  1 12 13  2 3 14  2 13 14  3 4 15  3 14 15  4 5 16  4 15 16  5 6 17  5 16 17  6 7 18  6 17 18  7 8 19  7 18 19  8 9 20  8 19 20  9 10 21  9 20 21  11 12 23  11 22 23  12 13 24  12 23 24  13 14 25  13 24 25  14 15 26  14 25 26  15 16 27  15 26 27  16 17 28  16 27 28  17 18 29  17 28 29  18 19 30  18 29 30  19 20 31  19 30 31  20 21 32  20 31 32  22 23 34  22 33 34  23 24 35  23 34 35  24 25 36  24 35 36  25 26 37  25 36 37  26 27 38  26 37 38  27 28 39  27 38 39  28 29 40  28 39 40  29 30 41  29 40 41  30 31 42  30 41 42  31 32 43  31 42 43  33 34 45  33 44 45  34 35 46  34 45 46  35 36 47  35 46 47  36 37 48  36 47 48  37 38 49  37 48 49  38 39 50  38 49 50  39 40 51  39 50 51  40 41 52  40 51 52  41 42 53  41 52 53  42 43 54  42 53 54  44 45 56  44 55 56  45 46 57  45 56 57  46 47 58  46 57 58  47 48 59  47 58 59  48 49 60  48 59 60  49 50 61  49 60 61  50 51 62  50 61 62  51 52 63  51 62 63  52 53 64  52 63 64  53 54 65  53 64 65  55 56 67  55 66 67  56 57 68  56 67 68  57 58 69  57 68 69  58 59 70  58 69 70  59 60 71  59 70 71  60 61 72  60 71 72  61 62 73  61 72 73  62 63 74  62 73 74  63 64 75  63 74 75  64 65 76  64 75 76  66 67 78  66 77 78  67 68 79  67 78 79  68 69 80  68 79 80  69 70 81  69 80 81  70 71 82  70 81 82  71 72 83  71 82 83  72 73 84  72 83 84  73 74 85  73 84 85  74 75 86  74 85 86  75 76 87  75 86 87  77 78 89  77 88 89  78 79 90  78 89 90  79 80 91  79 90 91  80 81 92  80 91 92  81 82 93  81 92 93  82 83 94  82 93 94  83 84 95  83 94 95  84 85 96  84 95 96  85 86 97  85 96 97  86 87 98  86 97 98  88 89 100  88 99 100  89 90 101  89 100 101  90 91 102  90 101 102  91 92 103  91 102 103  92 93 104  92 103 104  93 94 105  93 104 105  94 95 106  94 105 106  95 96 107  95 106 107  96 97 108  96 107 108  97 98 109  97 108 109  99 100 111  99 110 111  100 101 112  100 111 112  101 102 113  101 112 113  102 103 114  102 113 114  103 104 115  103 114 115  104 105 116  104 115 116  105 106 117  105 116 117  106 107 118  106 117 118  107 108 119  107 118 119  108 109 120  108 119 120  </DataArray>
<DataArray  type="UInt32"  Name="offsets"  format="ascii">3 6 9 12 15 18 21 24 27 30 33 36 39 42 45 48 51 54 57 60 63 66 69 72 75 78 81 84 87 90 93 96 99 102 105 108 111 114 117 120 123 126 129 132 135 138 141 144 147 150 153 156 159 162 165 168 171 174 177 180 183 186 189 192 195 198 201 204 207 210 213 216 219 222 225 228 231 234 237 240 243 246 249 252 255 258 261 264 267 270 273 276 279 282 285 288 291 294 297 300 303 306 309 312 315 318 321 324 327 330 333 336 339 342 345 348 351 354 357 360 363 366 369 372 375 378 381 384 387 390 393 396 399 402 405 408 411 414 417 420 423 426 429 432 435 438 441 444 447 450 453 456 459 462 465 468 471 474 477 480 483 486 489 492 495 498 501 504 507 510 513 516 519 522 525 528 531 534 537 540 543 546 549 552 555 558 561 564 567 570 573 576 579 582 585 588 591 594 597 600 </DataArray>
<DataArray  type="UInt8"  Name="types"  format="ascii">5 5 5 5 5 5 5 5 5 5 5 5 5 5 5 5 5 5 5 5 5 5 5 5 5 5 5 5 5 5 5 5 5 5 5 5 5 5 5 5 5 5 5 5 5 5 5 5 5 5 5 5 5 5 5 5 5 5 5 5 5 5 5 5 5 5 5 5 5 5 5 5 5 5 5 5 5 5 5 5 5 5 5 5 5 5 5 5 5 5 5 5 5 5 5 5 5 5 5 5 5 5 5 5 5 5 5 5 5 5 5 5 5 5 5 5 5 5 5 5 5 5 5 5 5 5 5 5 5 5 5 5 5 5 5 5 5 5 5 5 5 5 5 5 5 5 5 5 5 5 5 5 5 5 5 5 5 5 5 5 5 5 5 5 5 5 5 5 5 5 5 5 5 5 5 5 5 5 5 5 5 5 5 5 5 5 5 5 5 5 5 5 5 5 5 5 5 5 5 5 </DataArray>
</Cells>
<PointData  Vectors="f_22"> 
<DataArray  type="Float64"  Name="f_22"  NumberOfComponents="3" format="ascii">0.0000000000000000e+00 0.0000000000000000e+00 0.0000000000000000e+00  0.0000000000000000e+00 0.0000000000000000e+00 0.0000000000000000e+00  0.0000000000000000e+00 0.0000000000000000e+00 0.0000000000000000e+00  0.0000000000000000e+00 0.0000000000000000e+00 0.0000000000000000e+00  0.0000000000000000e+00 0.0000000000000000e+00 0.0000000000000000e+00  0.0000000000000000e+00 0.0000000000000000e+00 0.0000000000000000e+00  0.0000000000000000e+00 0.0000000000000000e+00 0.0000000000000000e+00  0.0000000000000000e+00 0.0000000000000000e+00 0.0000000000000000e+00  0.0000000000000000e+00 0.0000000000000000e+00 0.0000000000000000e+00  0.0000000000000000e+00 0.0000000000000000e+00 0.0000000000000000e+00  0.0000000000000000e+00 0.0000000000000000e+00 0.0000000000000000e+00  0.0000000000000000e+00 0.0000000000000000e+00 0.0000000000000000e+00  -2.1095574242214664e-02 2.0188960762021698e-02 0.0000000000000000e+00  -4.1292839069705926e-02 1.1752903742416700e-02 0.0000000000000000e+00  -4.5384409793099607e-02 3.0255962156910594e-03 0.0000000000000000e+00  -3.8374188611106377e-02 -1.6835436886608731e-03 0.0000000000000000e+00  -2.5704995896383767e-02 -4.4024600383476995e-03 0.0000000000000000e+00  -8.8487414414808833e-03 -7.6977667106787736e-03 0.0000000000000000e+00  1.4633814964070568e-02 -1.3821546945303386e-02 0.0000000000000000e+00  5.0107969066473967e-02 -2.4714454584026414e-02 0.0000000000000000e+00  1.0853057637535758e-01 -4.1046825346085600e-02 0.0000000000000000e+00  1.7104918492255122e-01 -5.9075544739150228e-02 0.0000000000000000e+00  0.0000000000000000e+00 0.0000000000000000e+00 0.0000000000000000e+00  -1.7582733826031909e-02 4.3883209439536476e-02 0.0000000000000000e+00  -2.9220362791235202e-02 1.8835102075078214e-02 0.0000000000000000e+00  -2.1935524668359966e-02 -5.9383589259320545e-03 0.0000000000000000e+00  -2.3939485378822933e-03 -1.9282761604368849e-02 0.0000000000000000e+00  2.2499949376178215e-02 -2.6080750494722565e-02 0.0000000000000000e+00  4.9632006722502710e-02 -3.3109944136060249e-02 0.0000000000000000e+00  8.0015691280443349e-02 -4.6701616799248662e-02 0.0000000000000000e+00  1.1800320748522362e-01 -7.1971823901937945e-02 0.0000000000000000e+00  1.7375423902281609e-01 -1.1141076981085761e-01 0.0000000000000000e+00  2.3194970256331693e-01 -1.5301328855688706e-01 0.0000000000000000e+00  0.0000000000000000e+00 0.0000000000000000e+00 0.0000000000000000e+00  -1.5014754755192023e-02 6.1620478479542003e-02 0.0000000000000000e+00  -2.2307699090139993e-02 1.7817605601081185e-02 0.0000000000000000e+00  -1.1207880436014558e-02 -2.3297631848160368e-02 0.0000000000000000e+00  1.0892332885357058e-02 -4.4184951144600852e-02 0.0000000000000000e+00  3.5720884533225659e-02 -5.2340424115604765e-02 0.0000000000000000e+00  5.7927676495856804e-02 -5.8588712183609379e-02 0.0000000000000000e+00  7.6887067659763747e-02 -7.3572612382470412e-02 0.0000000000000000e+00  9.7195111413001231e-02 -1.0377773087403851e-01 0.0000000000000000e+00  1.1800010412913621e-01 -1.5575511998741465e-01 0.0000000000000000e+00  1.3779387318168870e-01 -2.2324981174178971e-01 0.0000000000000000e+00  0.0000000000000000e+00 0.0000000000000000e+00 0.0000000000000000e+00  -1.3959572301425105e-02 7.7155071953332349e-02 0.0000000000000000e+00  -1.9362595523370069e-02 1.4993129092433855e-02 0.0000000000000000e+00  -6.8347557226595447e-03 -4.1362405281689600e-02 0.0000000000000000e+00  1.5374272006925479e-02 -6.7903533621006748e-02 0.0000000000000000e+00  3.5990133694122767e-02 -7.2847371379045539e-02 0.0000000000000000e+00  4.6645910235600246e-02 -7.1049987634591943e-02 0.0000000000000000e+00  4.4088198833288912e-02 -7.9718451271716423e-02 0.0000000000000000e+00  4.4261438109338025e-02 -1.0844162968999234e-01 0.0000000000000000e+00  -1.2687755585323335e-02 -1.5178663345825316e-01 0.0000000000000000e+00  -5.7640914942996363e-02 -1.9851852499486933e-01 0.0000000000000000e+00  0.0000000000000000e+00 0.0000000000000000e+00 0.0000000000000000e+00  -1.2700335849422130e-02 9.0333716436945946e-02 0.0000000000000000e+00  -1.6692627413501630e-02 9.1439735185734842e-03 0.0000000000000000e+00  -3.3221482709993640e-03 -6.2049890413796785e-02 0.0000000000000000e+00  1.7661143901265299e-02 -9.0758515099243903e-02 0.0000000000000000e+00  2.8687875265411847e-02 -8.3480977551563793e-02 0.0000000000000000e+00  2.1076640444496919e-02 -6.2656800382559816e-02 0.0000000000000000e+00  -1.7829708884052446e-02 -5.8600559005067422e-02 0.0000000000000000e+00  -2.4919750669262795e-02 -8.1601700664712271e-02 0.0000000000000000e+00  -1.9980311635159403e-01 -6.9643949892595355e-02 0.0000000000000000e+00  0.0000000000000000e+00 0.0000000000000000e+00 0.0000000000000000e+00  0.0000000000000000e+00 0.0000000000000000e+00 0.0000000000000000e+00  -1.1271226903495912e-02 1.0248157689219639e-01 0.0000000000000000e+00  -1.3991598546884447e-02 4.8209193541708262e-03 0.0000000000000000e+00  -1.6804212006912597e-03 -7.8902517129293026e-02 0.0000000000000000e+00  1.2918870937687418e-02 -1.0445631244422206e-01 0.0000000000000000e+00  3.9849524307068824e-03 -7.2630144018294873e-02 0.0000000000000000e+00  -2.7300710336950845e-02 -2.2106416390819911e-02 0.0000000000000000e+00  -1.2202751007260425e-01 -7.4194320036110109e-03 0.0000000000000000e+00  -1.0562457306280301e-01 -1.5385798399133933e-02 0.0000000000000000e+00  -4.2107358229643871e-01 3.2309864641109513e-02 0.0000000000000000e+00  0.0000000000000000e+00 0.0000000000000000e+00 0.0000000000000000e+00  0.0000000000000000e+00 0.0000000000000000e+00 0.0000000000000000e+00  -8.8552362016126283e-03 1.1179376358115850e-01 0.0000000000000000e+00  -1.1274730844830102e-02 -1.0320776860375056e-03 0.0000000000000000e+00  -4.0838418595519075e-03 -9.3544237107252723e-02 0.0000000000000000e+00  -3.4606096997812958e-03 -1.0489403679950600e-01 0.0000000000000000e+00  -4.0678127580901537e-02 -3.0594707169689855e-02 0.0000000000000000e+00  -9.6080785458666718e-02 5.4689967673698554e-02 0.0000000000000000e+00  -2.6385635324454088e-01 7.3265602431536583e-02 0.0000000000000000e+00  -1.9131880804903811e-01 9.1311354224993840e-02 0.0000000000000000e+00  -6.6323533328424034e-01 1.0863722847238870e-01 0.0000000000000000e+00  0.0000000000000000e+00 0.0000000000000000e+00 0.0000000000000000e+00  0.0000000000000000e+00 0.0000000000000000e+00 0.0000000000000000e+00  -5.6634976463551898e-03 1.1882063185677778e-01 0.0000000000000000e+00  -7.3715608864111685e-03 -2.3932626258534049e-03 0.0000000000000000e+00  -8.0740988937109178e-03 -9.5312388799881048e-02 0.0000000000000000e+00  -2.7302418353290413e-02 -8.1895988103725018e-02 0.0000000000000000e+00  -8.9591577639493880e-02 4.3874173494765641e-02 0.0000000000000000e+00  -1.6977724505919825e-01 1.5928300579416368e-01 0.0000000000000000e+00  -3.9904155182147633e-01 2.0427285004222709e-01 0.0000000000000000e+00  -2.9419078311030294e-01 2.2895221369536631e-01 0.0000000000000000e+00  -8.9706870405190076e-01 1.3782058911481862e-01 0.0000000000000000e+00  0.0000000000000000e+00 0.0000000000000000e+00 0.0000000000000000e+00  0.0000000000000000e+00 0.0000000000000000e+00 0.0000000000000000e+00  -4.1751852720924287e-04 1.1988261276995464e-01 0.0000000000000000e+00  2.6513936578456874e-03 -3.1251919435823622e-03 0.0000000000000000e+00  5.3891071542519389e-04 -8.3572695785257722e-02 0.0000000000000000e+00  -2.5222125939614527e-02 -2.7668436332044532e-02 0.0000000000000000e+00  -9.5728660903884308e-02 1.5348345854869544e-01 0.0000000000000000e+00  -1.8641048398404567e-01 2.8241363024033700e-01 0.0000000000000000e+00  -3.9789861456383685e-01 3.5307551851081465e-01 0.0000000000000000e+00  -4.4363192275820634e-01 3.4563214744094461e-01 0.0000000000000000e+00  -1.0411579682201419e+00 1.2302413767016138e-01 0.0000000000000000e+00  0.0000000000000000e+00 0.0000000000000000e+00 0.0000000000000000e+00  0.0000000000000000e+00 0.0000000000000000e+00 0.0000000000000000e+00  4.8376796161691002e-03 1.1170323551341450e-01 0.0000000000000000e+00  1.2543020313605156e-02 -8.2937212244857637e-03 0.0000000000000000e+00  1.6022894363833608e-02 -8.5976624868972909e-02 0.0000000000000000e+00  2.7134651696080155e-03 -4.0862460191265588e-03 0.0000000000000000e+00  0.0000000000000000e+00 0.0000000000000000e+00 0.0000000000000000e+00  0.0000000000000000e+00 0.0000000000000000e+00 0.0000000000000000e+00  0.0000000000000000e+00 0.0000000000000000e+00 0.0000000000000000e+00  0.0000000000000000e+00 0.0000000000000000e+00 0.0000000000000000e+00  0.0000000000000000e+00 0.0000000000000000e+00 0.0000000000000000e+00  0.0000000000000000e+00 0.0000000000000000e+00 0.0000000000000000e+00  </DataArray> 
</PointData> 
</Piece>
</UnstructuredGrid>
</VTKFile>