<?xml version="1.0"?>
<VTKFile type="UnstructuredGrid"  version="0.1"  >
<UnstructuredGrid>
<Piece  NumberOfPoints="121" NumberOfCells="200">
<Points>
<DataArray  type="Float64"  NumberOfComponents="3"  format="ascii">0 0 0  0.1 0 0  0.2 0 0  0.3 0 0  0.4 0 0  0.5 0 0  0.6 0 0  0.7 0 0  0.8 0 0  0.9 0 0  1 0 0  0 0.1 0  0.1 0.1 0  0.2 0.1 0  0.3 0.1 0  0.4 0.1 0  0.5 0.1 0  0.6 0.1 0  0.7 0.1 0  0.8 0.1 0  0.9 0.1 0  1 0.1 0  0 0.2 0  0.1 0.2 0  0.2 0.2 0  0.3 0.2 0  0.4 0.2 0  0.5 0.2 0  0.6 0.2 0  0.7 0.2 0  0.8 0.2 0  0.9 0.2 0  1 0.2 0  0 0.3 0  0.1 0.3 0  0.2 0.3 0  0.3 0.3 0  0.4 0.3 0  0.5 0.3 0  0.6 0.3 0  0.7 0.3 0  0.8 0.3 0  0.9 0.3 0  1 0.3 0  0 0.4 0  0.1 0.4 0  0.2 0.4 0  0.3 0.4 0  0.4 0.4 0  0.5 0.4 0  0.6 0.4 0  0.7 0.4 0  0.8 0.4 0  0.9 0.4 0  1 0.4 0  0 0.5 0  0.1 0.5 0  0.2 0.5 0  0.3 0.5 0  0.4 0.5 0  0.5 0.5 0  0.6 0.5 0  0.7 0.5 0  0.8 0.5 0  0.9 0.5 0  1 0.5 0  0 0.6 0  0.1 0.6 0  0.2 0.6 0  0.3 0.6 0  0.4 0.6 0  0.5 0.6 0  0.6 0.6 0  0.7 0.6 0  0.8 0.6 0  0.9 0.6 0  1 0.6 0  0 0.7 0  0.1 0.7 0  0.2 0.7 0  0.3 0.7 0  0.4 0.7 0  0.5 0.7 0  0.6 0.7 0  0.7 0.7 0  0.8 0.7 0  0.9 0.7 0  1 0.7 0  0 0.8 0  0.1 0.8 0  0.2 0.8 0  0.3 0.8 0  0.4 0.8 0  0.5 0.8 0  0.6 0.8 0  0.7 0.8 0  0.8 0.8 0  0.9 0.8 0  1 0.8 0  0 0.9 0  0.1 0.9 0  0.2 0.9 0  0.3 0.9 0  0.4 0.9 0  0.5 0.9 0  0.6 0.9 0  0.7 0.9 0  0.8 0.9 0  0.9 0.9 0  1 0.9 0  0 1 0  0.1 1 0  0.2 1 0  0.3 1 0  0.4 1 0  0.5 1 0  0.6 1 0  0.7 1 0  0.8 1 0  0.9 1 0  1 1 0  </DataArray>
</Points>
<Cells>
<DataArray  type="UInt32"  Name="connectivity"  format="ascii">0 1 12  0 11 12  1 2 13  1 12 13  2 3 14  2 13 14  3 4 15  3 14 15  4 5 16  4 15 16  5 6 17  5 16 17  6 7 18  6 17 18  7 8 19  7 18 19  8 9 20  8 19 20  9 10 21  9 20 21  11 12 23  11 22 23  12 13 24  12 23 24  13 14 25  13 24 25  14 15 26  14 25 26  15 16 27  15 26 27  16 17 28  16 27 28  17 18 29  17 28 29  18 19 30  18 29 30  19 20 31  19 30 31  20 21 32  20 31 32  22 23 34  22 33 34  23 24 35  23 34 35  24 25 36  24 35 36  25 26 37  25 36 37  26 27 38  26 37 38  27 28 39  27 38 39  28 29 40  28 39 40  29 30 41  29 40 41  30 31 42  30 41 42  31 32 43  31 42 43  33 34 45  33 44 45  34 35 46  34 45 46  35 36 47  35 46 47  36 37 48  36 47 48  37 38 49  37 48 49  38 39 50  38 49 50  39 40 51  39 50 51  40 41 52  40 51 52  41 42 53  41 52 53  42 43 54  42 53 54  44 45 56  44 55 56  45 46 57  45 56 57  46 47 58  46 57 58  47 48 59  47 58 59  48 49 60  48 59 60  49 50 61  49 60 61  50 51 62  50 61 62  51 52 63  51 62 63  52 53 64  52 63 64  53 54 65  53 64 65  55 56 67  55 66 67  56 57 68  56 67 68  57 58 69  57 68 69  58 59 70  58 69 70  59 60 71  59 70 71  60 61 72  60 71 72  61 62 73  61 72 73  62 63 74  62 73 74  63 64 75  63 74 75  64 65 76  64 75 76  66 67 78  66 77 78  67 68 79  67 78 79  68 69 80  68 79 80  69 70 81  69 80 81  70 71 82  70 81 82  71 72 83  71 82 83  72 73 84  72 83 84  73 74 85  73 84 85  74 75 86  74 85 86  75 76 87  75 86 87  77 78 89  77 88 89  78 79 90  78 89 90  79 80 91  79 90 91  80 81 92  80 91 92  81 82 93  81 92 93  82 83 94  82 93 94  83 84 95  83 94 95  84 85 96  84 95 96  85 86 97  85 96 97  86 87 98  86 97 98  88 89 100  88 99 100  89 90 101  89 100 101  90 91 102  90 101 102  91 92 103  91 102 103  92 93 104  92 103 104  93 94 105  93 104 105  94 95 106  94 105 106  95 96 107  95 106 107  96 97 108  96 107 108  97 98 109  97 108 109  99 100 111  99 110 111  100 101 112  100 111 112  101 102 113  101 112 113  102 103 114  102 113 114  103 104 115  103 114 115  104 105 116  104 115 116  105 106 117  105 116 117  106 107 118  106 117 118  107 108 119  107 118 119  108 109 120  108 119 120  </DataArray>
<DataArray  type="UInt32"  Name="offsets"  format="ascii">3 6 9 12 15 18 21 24 27 30 33 36 39 42 45 48 51 54 57 60 63 66 69 72 75 78 81 84 87 90 93 96 99 102 105 108 111 114 117 120 123 126 129 132 135 138 141 144 147 150 153 156 159 162 165 168 171 174 177 180 183 186 189 192 195 198 201 204 207 210 213 216 219 222 225 228 231 234 237 240 243 246 249 252 255 258 261 264 267 270 273 276 279 282 285 288 291 294 297 300 303 306 309 312 315 318 321 324 327 330 333 336 339 342 345 348 351 354 357 360 363 366 369 372 375 378 381 384 387 390 393 396 399 402 405 408 411 414 417 420 423 426 429 432 435 438 441 444 447 450 453 456 459 462 465 468 471 474 477 480 483 486 489 492 495 498 501 504 507 510 513 516 519 522 525 528 531 534 537 540 543 546 549 552 555 558 561 564 567 570 573 576 579 582 585 588 591 594 597 600 </DataArray>
<DataArray  type="UInt8"  Name="types"  format="ascii">5 5 5 5 5 5 5 5 5 5 5 5 5 5 5 5 5 5 5 5 5 5 5 5 5 5 5 5 5 5 5 5 5 5 5 5 5 5 5 5 5 5 5 5 5 5 5 5 5 5 5 5 5 5 5 5 5 5 5 5 5 5 5 5 5 5 5 5 5 5 5 5 5 5 5 5 5 5 5 5 5 5 5 5 5 5 5 5 5 5 5 5 5 5 5 5 5 5 5 5 5 5 5 5 5 5 5 5 5 5 5 5 5 5 5 5 5 5 5 5 5 5 5 5 5 5 5 5 5 5 5 5 5 5 5 5 5 5 5 5 5 5 5 5 5 5 5 5 5 5 5 5 5 5 5 5 5 5 5 5 5 5 5 5 5 5 5 5 5 5 5 5 5 5 5 5 5 5 5 5 5 5 5 5 5 5 5 5 5 5 5 5 5 5 5 5 5 5 5 5 </DataArray>
</Cells>
<PointData  Vectors="f_22"> 
<DataArray  type="Float64"  Name="f_22"  NumberOfComponents="3" format="ascii">0.0000000000000000e+00 0.0000000000000000e+00 0.0000000000000000e+00  0.0000000000000000e+00 0.0000000000000000e+00 0.0000000000000000e+00  0.0000000000000000e+00 0.0000000000000000e+00 0.0000000000000000e+00  0.0000000000000000e+00 0.0000000000000000e+00 0.0000000000000000e+00  0.0000000000000000e+00 0.0000000000000000e+00 0.0000000000000000e+00  0.0000000000000000e+00 0.0000000000000000e+00 0.0000000000000000e+00  0.0000000000000000e+00 0.0000000000000000e+00 0.0000000000000000e+00  0.0000000000000000e+00 0.0000000000000000e+00 0.0000000000000000e+00  0.0000000000000000e+00 0.0000000000000000e+00 0.0000000000000000e+00  0.0000000000000000e+00 0.0000000000000000e+00 0.0000000000000000e+00  0.0000000000000000e+00 0.0000000000000000e+00 0.0000000000000000e+00  0.0000000000000000e+00 0.0000000000000000e+00 0.0000000000000000e+00  1.8947662650789111e-02 -2.0171915479685616e-02 0.0000000000000000e+00  6.6698916696461996e-02 -3.4281383757061773e-02 0.0000000000000000e+00  1.2751314935397456e-01 -3.8660867174647520e-02 0.0000000000000000e+00  1.9215345643138673e-01 -4.0057111169822357e-02 0.0000000000000000e+00  2.5841422946492187e-01 -4.1103519964342500e-02 0.0000000000000000e+00  3.2620235370871054e-01 -4.2346995240696725e-02 0.0000000000000000e+00  3.9577817657975933e-01 -4.3453288979363007e-02 0.0000000000000000e+00  4.6623447866972145e-01 -4.3325920956807380e-02 0.0000000000000000e+00  5.3401101184699296e-01 -4.1388392251793207e-02 0.0000000000000000e+00  5.8785059250866123e-01 -3.5870314374643386e-02 0.0000000000000000e+00  0.0000000000000000e+00 0.0000000000000000e+00 0.0000000000000000e+00  2.5748251127308632e-02 -6.2290666331553113e-02 0.0000000000000000e+00  8.4153511721258789e-02 -9.8126400535284916e-02 0.0000000000000000e+00  1.5659753680985167e-01 -1.0967904939329468e-01 0.0000000000000000e+00  2.3314679373604569e-01 -1.1304547981340486e-01 0.0000000000000000e+00  3.1127786313321365e-01 -1.1516987936563988e-01 0.0000000000000000e+00  3.9094243037490045e-01 -1.1817439454231105e-01 0.0000000000000000e+00  4.7297617150968191e-01 -1.2229679123892100e-01 0.0000000000000000e+00  5.5938233597665399e-01 -1.2608910356056488e-01 0.0000000000000000e+00  6.4561701713588482e-01 -1.2491770014387531e-01 0.0000000000000000e+00  7.2509751735937644e-01 -1.1029825383256682e-01 0.0000000000000000e+00  0.0000000000000000e+00 0.0000000000000000e+00 0.0000000000000000e+00  2.5888768838374800e-02 -1.1067256041783632e-01 0.0000000000000000e+00  8.5365120958036972e-02 -1.6954058718515794e-01 0.0000000000000000e+00  1.5873973370319827e-01 -1.8885945616415845e-01 0.0000000000000000e+00  2.3577009860599479e-01 -1.9503905344353720e-01 0.0000000000000000e+00  3.1383273646851212e-01 -1.9913632469851714e-01 0.0000000000000000e+00  3.9297649912087040e-01 -2.0452466350424880e-01 0.0000000000000000e+00  4.7472063377279627e-01 -2.1111673587892441e-01 0.0000000000000000e+00  5.5960728234602297e-01 -2.1562111283565827e-01 0.0000000000000000e+00  6.6541036368757633e-01 -2.1373117579136866e-01 0.0000000000000000e+00  7.5563562248692440e-01 -2.0471449537657904e-01 0.0000000000000000e+00  0.0000000000000000e+00 0.0000000000000000e+00 0.0000000000000000e+00  2.6287405517514014e-02 -1.5530377393917541e-01 0.0000000000000000e+00  8.5353823845722654e-02 -2.3356112941200197e-01 0.0000000000000000e+00  1.5815170699909809e-01 -2.5675617364730458e-01 0.0000000000000000e+00  2.3452577652902953e-01 -2.6185354550977669e-01 0.0000000000000000e+00  3.1092841849244085e-01 -2.6314996072681290e-01 0.0000000000000000e+00  3.8589057870475985e-01 -2.6667407100397961e-01 0.0000000000000000e+00  4.6050304560939148e-01 -2.7833788524649167e-01 0.0000000000000000e+00  5.3306924137608114e-01 -2.9899350871078001e-01 0.0000000000000000e+00  5.9544377689444405e-01 -3.2457737442567852e-01 0.0000000000000000e+00  8.1121250210621643e-01 -3.7567784985346186e-01 0.0000000000000000e+00  0.0000000000000000e+00 0.0000000000000000e+00 0.0000000000000000e+00  2.5507688645292213e-02 -2.0707277517578898e-01 0.0000000000000000e+00  8.2758011107073259e-02 -3.1283589786849125e-01 0.0000000000000000e+00  1.5479053519903954e-01 -3.5052855199848865e-01 0.0000000000000000e+00  2.3187000787857745e-01 -3.6360617410207241e-01 0.0000000000000000e+00  3.0737147618588362e-01 -3.6795683629823545e-01 0.0000000000000000e+00  3.7694194737946440e-01 -3.7377745140964785e-01 0.0000000000000000e+00  4.4225670539797707e-01 -3.8693468063358194e-01 0.0000000000000000e+00  5.0300967454632195e-01 -3.9907217717617499e-01 0.0000000000000000e+00  4.9345025616355415e-01 -3.6301107762488738e-01 0.0000000000000000e+00  0.0000000000000000e+00 0.0000000000000000e+00 0.0000000000000000e+00  0.0000000000000000e+00 0.0000000000000000e+00 0.0000000000000000e+00  2.5707287390871292e-02 -2.4493135205143257e-01 0.0000000000000000e+00  8.1134309763426629e-02 -3.5950651574905557e-01 0.0000000000000000e+00  1.5221189746752212e-01 -3.9134579604468800e-01 0.0000000000000000e+00  2.3140143787931083e-01 -3.9311216786070496e-01 0.0000000000000000e+00  3.0853666214396169e-01 -3.7909791225807682e-01 0.0000000000000000e+00  3.6813168511051414e-01 -3.5874862152593257e-01 0.0000000000000000e+00  4.1034932691301507e-01 -3.5981899424983382e-01 0.0000000000000000e+00  4.5384379536776437e-01 -4.0260517597302065e-01 0.0000000000000000e+00  4.6353122591030599e-01 -4.1474915001158535e-01 0.0000000000000000e+00  0.0000000000000000e+00 0.0000000000000000e+00 0.0000000000000000e+00  0.0000000000000000e+00 0.0000000000000000e+00 0.0000000000000000e+00  2.1866366893330158e-02 -2.9569820722894175e-01 0.0000000000000000e+00  6.5884914808802444e-02 -4.4595136635741145e-01 0.0000000000000000e+00  1.3018236672777231e-01 -5.2420431261662692e-01 0.0000000000000000e+00  2.1687672679901063e-01 -5.7036403940390290e-01 0.0000000000000000e+00  2.9413905656622463e-01 -5.5506038438566230e-01 0.0000000000000000e+00  3.2405438533338426e-01 -5.1886145403091788e-01 0.0000000000000000e+00  3.4018532738982660e-01 -5.4490374759811810e-01 0.0000000000000000e+00  3.8086622421999755e-01 -5.7798365355719605e-01 0.0000000000000000e+00  4.1553035231782226e-01 -5.5187980708219830e-01 0.0000000000000000e+00  0.0000000000000000e+00 0.0000000000000000e+00 0.0000000000000000e+00  0.0000000000000000e+00 0.0000000000000000e+00 0.0000000000000000e+00  1.8294540142864423e-02 -3.1945040424051757e-01 0.0000000000000000e+00  5.5864787512620369e-02 -4.6558320484168864e-01 0.0000000000000000e+00  1.1946765817769028e-01 -5.2685284188589931e-01 0.0000000000000000e+00  2.0049884210859611e-01 -5.2938747160657307e-01 0.0000000000000000e+00  2.5154152663926804e-01 -3.9825227351688347e-01 0.0000000000000000e+00  2.4946945694574738e-01 -2.8541066555959460e-01 0.0000000000000000e+00  2.3966613898429021e-01 -2.7845680394346639e-01 0.0000000000000000e+00  2.2878052031849944e-01 -3.5309403536339268e-01 0.0000000000000000e+00  2.3161062185706066e-01 -5.0252886072396152e-01 0.0000000000000000e+00  0.0000000000000000e+00 0.0000000000000000e+00 0.0000000000000000e+00  0.0000000000000000e+00 0.0000000000000000e+00 0.0000000000000000e+00  1.2138107405653058e-02 -3.5392946528962227e-01 0.0000000000000000e+00  3.2491812684209372e-02 -5.2918864337791016e-01 0.0000000000000000e+00  6.0643809106895812e-02 -6.6053180938224909e-01 0.0000000000000000e+00  9.5596393497701410e-02 -7.7859045582595743e-01 0.0000000000000000e+00  1.2155210749421044e-01 -6.8618156470009184e-01 0.0000000000000000e+00  7.0698320376052823e-02 -6.5134650528272708e-01 0.0000000000000000e+00  7.3882503707644390e-02 -7.5397203634893617e-01 0.0000000000000000e+00  6.8544122490859172e-02 -8.4482485437023314e-01 0.0000000000000000e+00  1.5134170113886128e-01 -8.0248004632085868e-01 0.0000000000000000e+00  0.0000000000000000e+00 0.0000000000000000e+00 0.0000000000000000e+00  0.0000000000000000e+00 0.0000000000000000e+00 0.0000000000000000e+00  7.7771094905358844e-03 -3.5926622778611672e-01 0.0000000000000000e+00  1.9643151411944570e-02 -5.2049751534173883e-01 0.0000000000000000e+00  3.4728469433676641e-02 -6.2890536132352137e-01 0.0000000000000000e+00  4.4118490090898778e-02 -6.7459877084888242e-01 0.0000000000000000e+00  0.0000000000000000e+00 0.0000000000000000e+00 0.0000000000000000e+00  0.0000000000000000e+00 0.0000000000000000e+00 0.0000000000000000e+00  0.0000000000000000e+00 0.0000000000000000e+00 0.0000000000000000e+00  0.0000000000000000e+00 0.0000000000000000e+00 0.0000000000000000e+00  0.0000000000000000e+00 0.0000000000000000e+00 0.0000000000000000e+00  0.0000000000000000e+00 0.0000000000000000e+00 0.0000000000000000e+00  </DataArray> 
</PointData> 
</Piece>
</UnstructuredGrid>
</VTKFile>