<?xml version="1.0"?>
<VTKFile type="UnstructuredGrid"  version="0.1"  >
<UnstructuredGrid>
<Piece  NumberOfPoints="121" NumberOfCells="200">
<Points>
<DataArray  type="Float64"  NumberOfComponents="3"  format="ascii">0 0 0  0.1 0 0  0.2 0 0  0.3 0 0  0.4 0 0  0.5 0 0  0.6 0 0  0.7 0 0  0.8 0 0  0.9 0 0  1 0 0  0 0.1 0  0.1 0.1 0  0.2 0.1 0  0.3 0.1 0  0.4 0.1 0  0.5 0.1 0  0.6 0.1 0  0.7 0.1 0  0.8 0.1 0  0.9 0.1 0  1 0.1 0  0 0.2 0  0.1 0.2 0  0.2 0.2 0  0.3 0.2 0  0.4 0.2 0  0.5 0.2 0  0.6 0.2 0  0.7 0.2 0  0.8 0.2 0  0.9 0.2 0  1 0.2 0  0 0.3 0  0.1 0.3 0  0.2 0.3 0  0.3 0.3 0  0.4 0.3 0  0.5 0.3 0  0.6 0.3 0  0.7 0.3 0  0.8 0.3 0  0.9 0.3 0  1 0.3 0  0 0.4 0  0.1 0.4 0  0.2 0.4 0  0.3 0.4 0  0.4 0.4 0  0.5 0.4 0  0.6 0.4 0  0.7 0.4 0  0.8 0.4 0  0.9 0.4 0  1 0.4 0  0 0.5 0  0.1 0.5 0  0.2 0.5 0  0.3 0.5 0  0.4 0.5 0  0.5 0.5 0  0.6 0.5 0  0.7 0.5 0  0.8 0.5 0  0.9 0.5 0  1 0.5 0  0 0.6 0  0.1 0.6 0  0.2 0.6 0  0.3 0.6 0  0.4 0.6 0  0.5 0.6 0  0.6 0.6 0  0.7 0.6 0  0.8 0.6 0  0.9 0.6 0  1 0.6 0  0 0.7 0  0.1 0.7 0  0.2 0.7 0  0.3 0.7 0  0.4 0.7 0  0.5 0.7 0  0.6 0.7 0  0.7 0.7 0  0.8 0.7 0  0.9 0.7 0  1 0.7 0  0 0.8 0  0.1 0.8 0  0.2 0.8 0  0.3 0.8 0  0.4 0.8 0  0.5 0.8 0  0.6 0.8 0  0.7 0.8 0  0.8 0.8 0  0.9 0.8 0  1 0.8 0  0 0.9 0  0.1 0.9 0  0.2 0.9 0  0.3 0.9 0  0.4 0.9 0  0.5 0.9 0  0.6 0.9 0  0.7 0.9 0  0.8 0.9 0  0.9 0.9 0  1 0.9 0  0 1 0  0.1 1 0  0.2 1 0  0.3 1 0  0.4 1 0  0.5 1 0  0.6 1 0  0.7 1 0  0.8 1 0  0.9 1 0  1 1 0  </DataArray>
</Points>
<Cells>
<DataArray  type="UInt32"  Name="connectivity"  format="ascii">0 1 12  0 11 12  1 2 13  1 12 13  2 3 14  2 13 14  3 4 15  3 14 15  4 5 16  4 15 16  5 6 17  5 16 17  6 7 18  6 17 18  7 8 19  7 18 19  8 9 20  8 19 20  9 10 21  9 20 21  11 12 23  11 22 23  12 13 24  12 23 24  13 14 25  13 24 25  14 15 26  14 25 26  15 16 27  15 26 27  16 17 28  16 27 28  17 18 29  17 28 29  18 19 30  18 29 30  19 20 31  19 30 31  20 21 32  20 31 32  22 23 34  22 33 34  23 24 35  23 34 35  24 25 36  24 35 36  25 26 37  25 36 37  26 27 38  26 37 38  27 28 39  27 38 39  28 29 40  28 39 40  29 30 41  29 40 41  30 31 42  30 41 42  31 32 43  31 42 43  33 34 45  33 44 45  34 35 46  34 45 46  35 36 47  35 46 47  36 37 48  36 47 48  37 38 49  37 48 49  38 39 50  38 49 50  39 40 51  39 50 51  40 41 52  40 51 52  41 42 53  41 52 53  42 43 54  42 53 54  44 45 56  44 55 56  45 46 57  45 56 57  46 47 58  46 57 58  47 48 59  47 58 59  48 49 60  48 59 60  49 50 61  49 60 61  50 51 62  50 61 62  51 52 63  51 62 63  52 53 64  52 63 64  53 54 65  53 64 65  55 56 67  55 66 67  56 57 68  56 67 68  57 58 69  57 68 69  58 59 70  58 69 70  59 60 71  59 70 71  60 61 72  60 71 72  61 62 73  61 72 73  62 63 74  62 73 74  63 64 75  63 74 75  64 65 76  64 75 76  66 67 78  66 77 78  67 68 79  67 78 79  68 69 80  68 79 80  69 70 81  69 80 81  70 71 82  70 81 82  71 72 83  71 82 83  72 73 84  72 83 84  73 74 85  73 84 85  74 75 86  74 85 86  75 76 87  75 86 87  77 78 89  77 88 89  78 79 90  78 89 90  79 80 91  79 90 91  80 81 92  80 91 92  81 82 93  81 92 93  82 83 94  82 93 94  83 84 95  83 94 95  84 85 96  84 95 96  85 86 97  85 96 97  86 87 98  86 97 98  88 89 100  88 99 100  89 90 101  89 100 101  90 91 102  90 101 102  91 92 103  91 102 103  92 93 104  92 103 104  93 94 105  93 104 105  94 95 106  94 105 106  95 96 107  95 106 107  96 97 108  96 107 108  97 98 109  97 108 109  99 100 111  99 110 111  100 101 112  100 111 112  101 102 113  101 112 113  102 103 114  102 113 114  103 104 115  103 114 115  104 105 116  104 115 116  105 106 117  105 116 117  106 107 118  106 117 118  107 108 119  107 118 119  108 109 120  108 119 120  </DataArray>
<DataArray  type="UInt32"  Name="offsets"  format="ascii">3 6 9 12 15 18 21 24 27 30 33 36 39 42 45 48 51 54 57 60 63 66 69 72 75 78 81 84 87 90 93 96 99 102 105 108 111 114 117 120 123 126 129 132 135 138 141 144 147 150 153 156 159 162 165 168 171 174 177 180 183 186 189 192 195 198 201 204 207 210 213 216 219 222 225 228 231 234 237 240 243 246 249 252 255 258 261 264 267 270 273 276 279 282 285 288 291 294 297 300 303 306 309 312 315 318 321 324 327 330 333 336 339 342 345 348 351 354 357 360 363 366 369 372 375 378 381 384 387 390 393 396 399 402 405 408 411 414 417 420 423 426 429 432 435 438 441 444 447 450 453 456 459 462 465 468 471 474 477 480 483 486 489 492 495 498 501 504 507 510 513 516 519 522 525 528 531 534 537 540 543 546 549 552 555 558 561 564 567 570 573 576 579 582 585 588 591 594 597 600 </DataArray>
<DataArray  type="UInt8"  Name="types"  format="ascii">5 5 5 5 5 5 5 5 5 5 5 5 5 5 5 5 5 5 5 5 5 5 5 5 5 5 5 5 5 5 5 5 5 5 5 5 5 5 5 5 5 5 5 5 5 5 5 5 5 5 5 5 5 5 5 5 5 5 5 5 5 5 5 5 5 5 5 5 5 5 5 5 5 5 5 5 5 5 5 5 5 5 5 5 5 5 5 5 5 5 5 5 5 5 5 5 5 5 5 5 5 5 5 5 5 5 5 5 5 5 5 5 5 5 5 5 5 5 5 5 5 5 5 5 5 5 5 5 5 5 5 5 5 5 5 5 5 5 5 5 5 5 5 5 5 5 5 5 5 5 5 5 5 5 5 5 5 5 5 5 5 5 5 5 5 5 5 5 5 5 5 5 5 5 5 5 5 5 5 5 5 5 5 5 5 5 5 5 5 5 5 5 5 5 5 5 5 5 5 5 </DataArray>
</Cells>
<PointData  Vectors="f_22"> 
<DataArray  type="Float64"  Name="f_22"  NumberOfComponents="3" format="ascii">0.0000000000000000e+00 0.0000000000000000e+00 0.0000000000000000e+00  0.0000000000000000e+00 0.0000000000000000e+00 0.0000000000000000e+00  0.0000000000000000e+00 0.0000000000000000e+00 0.0000000000000000e+00  0.0000000000000000e+00 0.0000000000000000e+00 0.0000000000000000e+00  0.0000000000000000e+00 0.0000000000000000e+00 0.0000000000000000e+00  0.0000000000000000e+00 0.0000000000000000e+00 0.0000000000000000e+00  0.0000000000000000e+00 0.0000000000000000e+00 0.0000000000000000e+00  0.0000000000000000e+00 0.0000000000000000e+00 0.0000000000000000e+00  0.0000000000000000e+00 0.0000000000000000e+00 0.0000000000000000e+00  0.0000000000000000e+00 0.0000000000000000e+00 0.0000000000000000e+00  0.0000000000000000e+00 0.0000000000000000e+00 0.0000000000000000e+00  0.0000000000000000e+00 0.0000000000000000e+00 0.0000000000000000e+00  -2.0751842383288123e-02 1.9825725146096731e-02 0.0000000000000000e+00  -3.9996499606221592e-02 1.1128526189049042e-02 0.0000000000000000e+00  -4.2934733027659787e-02 2.3465283129935313e-03 0.0000000000000000e+00  -3.4772995476766905e-02 -2.3532146997648226e-03 0.0000000000000000e+00  -2.0992130848732821e-02 -5.0536911268228100e-03 0.0000000000000000e+00  -3.0626990778198629e-03 -8.3330661151741221e-03 0.0000000000000000e+00  2.1436750975693742e-02 -1.4425336848183123e-02 0.0000000000000000e+00  5.7869009875170963e-02 -2.5222276557565551e-02 0.0000000000000000e+00  1.1679921610214054e-01 -4.1350031187821171e-02 0.0000000000000000e+00  1.7995128639593017e-01 -5.9162942221591422e-02 0.0000000000000000e+00  0.0000000000000000e+00 0.0000000000000000e+00 0.0000000000000000e+00  -1.7064514525325945e-02 4.2675987747829172e-02 0.0000000000000000e+00  -2.7533517652466893e-02 1.7002971859686439e-02 0.0000000000000000e+00  -1.8941052732507017e-02 -7.8809986239288341e-03 0.0000000000000000e+00  1.8745568757800397e-03 -2.1175210788147051e-02 0.0000000000000000e+00  2.7983986342729483e-02 -2.7906861964577864e-02 0.0000000000000000e+00  5.6290601592476508e-02 -3.4883568683025744e-02 0.0000000000000000e+00  8.7811822570145096e-02 -4.8397389556331147e-02 0.0000000000000000e+00  1.2695153137736406e-01 -7.3516381524228333e-02 0.0000000000000000e+00  1.8366412667631926e-01 -1.1252536983495826e-01 0.0000000000000000e+00  2.4310047009060012e-01 -1.5380716104857473e-01 0.0000000000000000e+00  0.0000000000000000e+00 0.0000000000000000e+00 0.0000000000000000e+00  -1.4523863357715510e-02 5.9460029634601147e-02 0.0000000000000000e+00  -2.0683604768994727e-02 1.4671553550298267e-02 0.0000000000000000e+00  -8.3110822482195985e-03 -2.6573087505652043e-02 0.0000000000000000e+00  1.5032902461263199e-02 -4.7346185208890050e-02 0.0000000000000000e+00  4.1061619811183267e-02 -5.5383378947723792e-02 0.0000000000000000e+00  6.4449823658691313e-02 -6.1557792361566444e-02 0.0000000000000000e+00  8.4679018682314644e-02 -7.6458040287815249e-02 0.0000000000000000e+00  1.0617314955501735e-01 -1.0655053604156602e-01 0.0000000000000000e+00  1.2914030306581098e-01 -1.5845995903584101e-01 0.0000000000000000e+00  1.5123969591953984e-01 -2.2609136588560205e-01 0.0000000000000000e+00  0.0000000000000000e+00 0.0000000000000000e+00 0.0000000000000000e+00  -1.3466199635330231e-02 7.4117440536678125e-02 0.0000000000000000e+00  -1.7745684171738468e-02 1.0655344310868736e-02 0.0000000000000000e+00  -3.9486100846465519e-03 -4.5840857908214142e-02 0.0000000000000000e+00  1.9532641427477151e-02 -7.2250907631276159e-02 0.0000000000000000e+00  4.1455914859475758e-02 -7.7083195772656626e-02 0.0000000000000000e+00  5.3316335997855992e-02 -7.5217203558288662e-02 0.0000000000000000e+00  5.2333429842875763e-02 -8.3872414313491489e-02 0.0000000000000000e+00  5.2665402245477430e-02 -1.1301458616092697e-01 0.0000000000000000e+00  1.1461584620835270e-03 -1.5822026486360014e-01 0.0000000000000000e+00  -4.2900153384039012e-02 -2.0431753911243997e-01 0.0000000000000000e+00  0.0000000000000000e+00 0.0000000000000000e+00 0.0000000000000000e+00  -1.2184266201566389e-02 8.6338595124540327e-02 0.0000000000000000e+00  -1.5056887004039250e-02 3.4547591699449188e-03 0.0000000000000000e+00  -3.8032253271966547e-04 -6.7976307219350260e-02 0.0000000000000000e+00  2.1993913860815426e-02 -9.6607472947617540e-02 0.0000000000000000e+00  3.4610418012190697e-02 -8.9190646148707434e-02 0.0000000000000000e+00  2.8040293672234984e-02 -6.8130734312364646e-02 0.0000000000000000e+00  -8.7455139525569464e-03 -6.3826513051095463e-02 0.0000000000000000e+00  -1.7787249132844428e-02 -8.7606156229263280e-02 0.0000000000000000e+00  -1.8441516867820798e-01 -7.8351241789157602e-02 0.0000000000000000e+00  0.0000000000000000e+00 0.0000000000000000e+00 0.0000000000000000e+00  0.0000000000000000e+00 0.0000000000000000e+00 0.0000000000000000e+00  -1.0745664744930508e-02 9.7609057596496698e-02 0.0000000000000000e+00  -1.2330002311121224e-02 -1.9762792161660153e-03 0.0000000000000000e+00  1.3570755506839005e-03 -8.6032918616740298e-02 0.0000000000000000e+00  1.7515851779642402e-02 -1.1174871655190831e-01 0.0000000000000000e+00  1.0551123492490032e-02 -7.9807888367965027e-02 0.0000000000000000e+00  -2.0306553927719323e-02 -2.8689011235626328e-02 0.0000000000000000e+00  -1.1184001074582152e-01 -1.3291656127743535e-02 0.0000000000000000e+00  -9.9476500159932632e-02 -2.3024452284209646e-02 0.0000000000000000e+00  -4.0610662106454981e-01 2.5001058179858163e-02 0.0000000000000000e+00  0.0000000000000000e+00 0.0000000000000000e+00 0.0000000000000000e+00  0.0000000000000000e+00 0.0000000000000000e+00 0.0000000000000000e+00  -8.3152808297344595e-03 1.0595423266278767e-01 0.0000000000000000e+00  -9.6510635809814675e-03 -9.2683339105947508e-03 0.0000000000000000e+00  -1.0408318603761560e-03 -1.0258153494140268e-01 0.0000000000000000e+00  1.4105623181433998e-03 -1.1445075633228032e-01 0.0000000000000000e+00  -3.3542863066108632e-02 -3.9552595483171124e-02 0.0000000000000000e+00  -8.9283270633180145e-02 4.7315089034065796e-02 0.0000000000000000e+00  -2.5254318353566968e-01 6.6557786639411975e-02 0.0000000000000000e+00  -1.8586764561695338e-01 8.2333065577357659e-02 0.0000000000000000e+00  -6.5052034680915449e-01 1.0501433913326919e-01 0.0000000000000000e+00  0.0000000000000000e+00 0.0000000000000000e+00 0.0000000000000000e+00  0.0000000000000000e+00 0.0000000000000000e+00 0.0000000000000000e+00  -5.2137500434698740e-03 1.1216796090323582e-01 0.0000000000000000e+00  -5.9694525761347910e-03 -1.1681545999124425e-02 0.0000000000000000e+00  -5.2839495485024410e-03 -1.0575494379011663e-01 0.0000000000000000e+00  -2.2403864889622128e-02 -9.3243061461703428e-02 0.0000000000000000e+00  -8.2507068499453023e-02 3.3610114467227468e-02 0.0000000000000000e+00  -1.6300423552220497e-01 1.5092750657014389e-01 0.0000000000000000e+00  -3.8720237348404030e-01 1.9566496626004526e-01 0.0000000000000000e+00  -2.8812665995990422e-01 2.2125964376118940e-01 0.0000000000000000e+00  -8.8771436737030984e-01 1.3789823130820042e-01 0.0000000000000000e+00  0.0000000000000000e+00 0.0000000000000000e+00 0.0000000000000000e+00  0.0000000000000000e+00 0.0000000000000000e+00 0.0000000000000000e+00  -9.2107702114644613e-05 1.1252822046368614e-01 0.0000000000000000e+00  3.5965635977868210e-03 -1.3493751133533989e-02 0.0000000000000000e+00  2.3995226798163398e-03 -9.5981303987508121e-02 0.0000000000000000e+00  -2.1345723081700452e-02 -4.1951972533208960e-02 0.0000000000000000e+00  -8.9926486197161593e-02 1.4165792822393028e-01 0.0000000000000000e+00  -1.8045599325065492e-01 2.7500209747772125e-01 0.0000000000000000e+00  -3.8688576711876693e-01 3.4685581130672832e-01 0.0000000000000000e+00  -4.3207473235463290e-01 3.4387240839756539e-01 0.0000000000000000e+00  -1.0360413841415370e+00 1.2517328123665947e-01 0.0000000000000000e+00  0.0000000000000000e+00 0.0000000000000000e+00 0.0000000000000000e+00  0.0000000000000000e+00 0.0000000000000000e+00 0.0000000000000000e+00  5.0094296904395841e-03 1.0403357847202234e-01 0.0000000000000000e+00  1.2946347826389792e-02 -1.8921955368497983e-02 0.0000000000000000e+00  1.6776266762043846e-02 -9.8754027667813493e-02 0.0000000000000000e+00  4.6266377402717400e-03 -2.0261004195288580e-02 0.0000000000000000e+00  0.0000000000000000e+00 0.0000000000000000e+00 0.0000000000000000e+00  0.0000000000000000e+00 0.0000000000000000e+00 0.0000000000000000e+00  0.0000000000000000e+00 0.0000000000000000e+00 0.0000000000000000e+00  0.0000000000000000e+00 0.0000000000000000e+00 0.0000000000000000e+00  0.0000000000000000e+00 0.0000000000000000e+00 0.0000000000000000e+00  0.0000000000000000e+00 0.0000000000000000e+00 0.0000000000000000e+00  </DataArray> 
</PointData> 
</Piece>
</UnstructuredGrid>
</VTKFile>