<?xml version="1.0"?>
<VTKFile type="UnstructuredGrid"  version="0.1"  >
<UnstructuredGrid>
<Piece  NumberOfPoints="121" NumberOfCells="200">
<Points>
<DataArray  type="Float64"  NumberOfComponents="3"  format="ascii">0 0 0  0.1 0 0  0.2 0 0  0.3 0 0  0.4 0 0  0.5 0 0  0.6 0 0  0.7 0 0  0.8 0 0  0.9 0 0  1 0 0  0 0.1 0  0.1 0.1 0  0.2 0.1 0  0.3 0.1 0  0.4 0.1 0  0.5 0.1 0  0.6 0.1 0  0.7 0.1 0  0.8 0.1 0  0.9 0.1 0  1 0.1 0  0 0.2 0  0.1 0.2 0  0.2 0.2 0  0.3 0.2 0  0.4 0.2 0  0.5 0.2 0  0.6 0.2 0  0.7 0.2 0  0.8 0.2 0  0.9 0.2 0  1 0.2 0  0 0.3 0  0.1 0.3 0  0.2 0.3 0  0.3 0.3 0  0.4 0.3 0  0.5 0.3 0  0.6 0.3 0  0.7 0.3 0  0.8 0.3 0  0.9 0.3 0  1 0.3 0  0 0.4 0  0.1 0.4 0  0.2 0.4 0  0.3 0.4 0  0.4 0.4 0  0.5 0.4 0  0.6 0.4 0  0.7 0.4 0  0.8 0.4 0  0.9 0.4 0  1 0.4 0  0 0.5 0  0.1 0.5 0  0.2 0.5 0  0.3 0.5 0  0.4 0.5 0  0.5 0.5 0  0.6 0.5 0  0.7 0.5 0  0.8 0.5 0  0.9 0.5 0  1 0.5 0  0 0.6 0  0.1 0.6 0  0.2 0.6 0  0.3 0.6 0  0.4 0.6 0  0.5 0.6 0  0.6 0.6 0  0.7 0.6 0  0.8 0.6 0  0.9 0.6 0  1 0.6 0  0 0.7 0  0.1 0.7 0  0.2 0.7 0  0.3 0.7 0  0.4 0.7 0  0.5 0.7 0  0.6 0.7 0  0.7 0.7 0  0.8 0.7 0  0.9 0.7 0  1 0.7 0  0 0.8 0  0.1 0.8 0  0.2 0.8 0  0.3 0.8 0  0.4 0.8 0  0.5 0.8 0  0.6 0.8 0  0.7 0.8 0  0.8 0.8 0  0.9 0.8 0  1 0.8 0  0 0.9 0  0.1 0.9 0  0.2 0.9 0  0.3 0.9 0  0.4 0.9 0  0.5 0.9 0  0.6 0.9 0  0.7 0.9 0  0.8 0.9 0  0.9 0.9 0  1 0.9 0  0 1 0  0.1 1 0  0.2 1 0  0.3 1 0  0.4 1 0  0.5 1 0  0.6 1 0  0.7 1 0  0.8 1 0  0.9 1 0  1 1 0  </DataArray>
</Points>
<Cells>
<DataArray  type="UInt32"  Name="connectivity"  format="ascii">0 1 12  0 11 12  1 2 13  1 12 13  2 3 14  2 13 14  3 4 15  3 14 15  4 5 16  4 15 16  5 6 17  5 16 17  6 7 18  6 17 18  7 8 19  7 18 19  8 9 20  8 19 20  9 10 21  9 20 21  11 12 23  11 22 23  12 13 24  12 23 24  13 14 25  13 24 25  14 15 26  14 25 26  15 16 27  15 26 27  16 17 28  16 27 28  17 18 29  17 28 29  18 19 30  18 29 30  19 20 31  19 30 31  20 21 32  20 31 32  22 23 34  22 33 34  23 24 35  23 34 35  24 25 36  24 35 36  25 26 37  25 36 37  26 27 38  26 37 38  27 28 39  27 38 39  28 29 40  28 39 40  29 30 41  29 40 41  30 31 42  30 41 42  31 32 43  31 42 43  33 34 45  33 44 45  34 35 46  34 45 46  35 36 47  35 46 47  36 37 48  36 47 48  37 38 49  37 48 49  38 39 50  38 49 50  39 40 51  39 50 51  40 41 52  40 51 52  41 42 53  41 52 53  42 43 54  42 53 54  44 45 56  44 55 56  45 46 57  45 56 57  46 47 58  46 57 58  47 48 59  47 58 59  48 49 60  48 59 60  49 50 61  49 60 61  50 51 62  50 61 62  51 52 63  51 62 63  52 53 64  52 63 64  53 54 65  53 64 65  55 56 67  55 66 67  56 57 68  56 67 68  57 58 69  57 68 69  58 59 70  58 69 70  59 60 71  59 70 71  60 61 72  60 71 72  61 62 73  61 72 73  62 63 74  62 73 74  63 64 75  63 74 75  64 65 76  64 75 76  66 67 78  66 77 78  67 68 79  67 78 79  68 69 80  68 79 80  69 70 81  69 80 81  70 71 82  70 81 82  71 72 83  71 82 83  72 73 84  72 83 84  73 74 85  73 84 85  74 75 86  74 85 86  75 76 87  75 86 87  77 78 89  77 88 89  78 79 90  78 89 90  79 80 91  79 90 91  80 81 92  80 91 92  81 82 93  81 92 93  82 83 94  82 93 94  83 84 95  83 94 95  84 85 96  84 95 96  85 86 97  85 96 97  86 87 98  86 97 98  88 89 100  88 99 100  89 90 101  89 100 101  90 91 102  90 101 102  91 92 103  91 102 103  92 93 104  92 103 104  93 94 105  93 104 105  94 95 106  94 105 106  95 96 107  95 106 107  96 97 108  96 107 108  97 98 109  97 108 109  99 100 111  99 110 111  100 101 112  100 111 112  101 102 113  101 112 113  102 103 114  102 113 114  103 104 115  103 114 115  104 105 116  104 115 116  105 106 117  105 116 117  106 107 118  106 117 118  107 108 119  107 118 119  108 109 120  108 119 120  </DataArray>
<DataArray  type="UInt32"  Name="offsets"  format="ascii">3 6 9 12 15 18 21 24 27 30 33 36 39 42 45 48 51 54 57 60 63 66 69 72 75 78 81 84 87 90 93 96 99 102 105 108 111 114 117 120 123 126 129 132 135 138 141 144 147 150 153 156 159 162 165 168 171 174 177 180 183 186 189 192 195 198 201 204 207 210 213 216 219 222 225 228 231 234 237 240 243 246 249 252 255 258 261 264 267 270 273 276 279 282 285 288 291 294 297 300 303 306 309 312 315 318 321 324 327 330 333 336 339 342 345 348 351 354 357 360 363 366 369 372 375 378 381 384 387 390 393 396 399 402 405 408 411 414 417 420 423 426 429 432 435 438 441 444 447 450 453 456 459 462 465 468 471 474 477 480 483 486 489 492 495 498 501 504 507 510 513 516 519 522 525 528 531 534 537 540 543 546 549 552 555 558 561 564 567 570 573 576 579 582 585 588 591 594 597 600 </DataArray>
<DataArray  type="UInt8"  Name="types"  format="ascii">5 5 5 5 5 5 5 5 5 5 5 5 5 5 5 5 5 5 5 5 5 5 5 5 5 5 5 5 5 5 5 5 5 5 5 5 5 5 5 5 5 5 5 5 5 5 5 5 5 5 5 5 5 5 5 5 5 5 5 5 5 5 5 5 5 5 5 5 5 5 5 5 5 5 5 5 5 5 5 5 5 5 5 5 5 5 5 5 5 5 5 5 5 5 5 5 5 5 5 5 5 5 5 5 5 5 5 5 5 5 5 5 5 5 5 5 5 5 5 5 5 5 5 5 5 5 5 5 5 5 5 5 5 5 5 5 5 5 5 5 5 5 5 5 5 5 5 5 5 5 5 5 5 5 5 5 5 5 5 5 5 5 5 5 5 5 5 5 5 5 5 5 5 5 5 5 5 5 5 5 5 5 5 5 5 5 5 5 5 5 5 5 5 5 5 5 5 5 5 5 </DataArray>
</Cells>
<PointData  Vectors="f_22"> 
<DataArray  type="Float64"  Name="f_22"  NumberOfComponents="3" format="ascii">0.0000000000000000e+00 0.0000000000000000e+00 0.0000000000000000e+00  0.0000000000000000e+00 0.0000000000000000e+00 0.0000000000000000e+00  0.0000000000000000e+00 0.0000000000000000e+00 0.0000000000000000e+00  0.0000000000000000e+00 0.0000000000000000e+00 0.0000000000000000e+00  0.0000000000000000e+00 0.0000000000000000e+00 0.0000000000000000e+00  0.0000000000000000e+00 0.0000000000000000e+00 0.0000000000000000e+00  0.0000000000000000e+00 0.0000000000000000e+00 0.0000000000000000e+00  0.0000000000000000e+00 0.0000000000000000e+00 0.0000000000000000e+00  0.0000000000000000e+00 0.0000000000000000e+00 0.0000000000000000e+00  0.0000000000000000e+00 0.0000000000000000e+00 0.0000000000000000e+00  0.0000000000000000e+00 0.0000000000000000e+00 0.0000000000000000e+00  0.0000000000000000e+00 0.0000000000000000e+00 0.0000000000000000e+00  1.9931330532778496e-02 -2.1111432928428594e-02 0.0000000000000000e+00  6.8536658092425304e-02 -3.4840726088650610e-02 0.0000000000000000e+00  1.2965699568717062e-01 -3.8926718369207150e-02 0.0000000000000000e+00  1.9432027310814354e-01 -4.0216132864495442e-02 0.0000000000000000e+00  2.6049507512062958e-01 -4.1195994823639587e-02 0.0000000000000000e+00  3.2807817716987658e-01 -4.2312822965456617e-02 0.0000000000000000e+00  3.9720229782088023e-01 -4.3168721104296329e-02 0.0000000000000000e+00  4.6675045956485267e-01 -4.2638245809278261e-02 0.0000000000000000e+00  5.3298136376726224e-01 -4.0186876382791878e-02 0.0000000000000000e+00  5.8445161055552364e-01 -3.4118814943815218e-02 0.0000000000000000e+00  0.0000000000000000e+00 0.0000000000000000e+00 0.0000000000000000e+00  2.6603487387917308e-02 -6.4368999222577591e-02 0.0000000000000000e+00  8.5658570939233417e-02 -9.9183874288382323e-02 0.0000000000000000e+00  1.5817653724985206e-01 -1.0998399381556391e-01 0.0000000000000000e+00  2.3451617124664847e-01 -1.1309359471756059e-01 0.0000000000000000e+00  3.1237513626488750e-01 -1.1509921061032664e-01 0.0000000000000000e+00  3.9173617789352955e-01 -1.1785646455223955e-01 0.0000000000000000e+00  4.7333418946285444e-01 -1.2141950357158125e-01 0.0000000000000000e+00  5.5893232605977228e-01 -1.2415681661690277e-01 0.0000000000000000e+00  6.4361259367246804e-01 -1.2139668682770444e-01 0.0000000000000000e+00  7.2053056755113121e-01 -1.0519290706940423e-01 0.0000000000000000e+00  0.0000000000000000e+00 0.0000000000000000e+00 0.0000000000000000e+00  2.6704190792396155e-02 -1.1361786088895280e-01 0.0000000000000000e+00  8.6749730323643665e-02 -1.7071429162372545e-01 0.0000000000000000e+00  1.6013470481648737e-01 -1.8880377444700022e-01 0.0000000000000000e+00  2.3694841912256503e-01 -1.9461267408803221e-01 0.0000000000000000e+00  3.1483462275602209e-01 -1.9863228390023166e-01 0.0000000000000000e+00  3.9393240803085644e-01 -2.0381253495987542e-01 0.0000000000000000e+00  4.7567872250804694e-01 -2.0976329185047243e-01 0.0000000000000000e+00  5.6041493330197945e-01 -2.1295419817372449e-01 0.0000000000000000e+00  6.6571714645574842e-01 -2.0872342103525032e-01 0.0000000000000000e+00  7.5380752952301533e-01 -1.9643341999088262e-01 0.0000000000000000e+00  0.0000000000000000e+00 0.0000000000000000e+00 0.0000000000000000e+00  2.7036108036713993e-02 -1.5930736218161159e-01 0.0000000000000000e+00  8.6615026584550753e-02 -2.3525137585106451e-01 0.0000000000000000e+00  1.5939457968657866e-01 -2.5690583647331561e-01 0.0000000000000000e+00  2.3555580752474459e-01 -2.6159246471698694e-01 0.0000000000000000e+00  3.1188743780603406e-01 -2.6291636062091606e-01 0.0000000000000000e+00  3.8715790000193268e-01 -2.6638266125985566e-01 0.0000000000000000e+00  4.6244142165089591e-01 -2.7736592351009459e-01 0.0000000000000000e+00  5.3546438134817709e-01 -2.9627944738432249e-01 0.0000000000000000e+00  5.9786874214529329e-01 -3.1889733569755013e-01 0.0000000000000000e+00  8.1581872216080298e-01 -3.6459274930485941e-01 0.0000000000000000e+00  0.0000000000000000e+00 0.0000000000000000e+00 0.0000000000000000e+00  2.6202848535003164e-02 -2.1162043495630603e-01 0.0000000000000000e+00  8.3914301166494121e-02 -3.1419957569671075e-01 0.0000000000000000e+00  1.5585527451795386e-01 -3.4982781679095570e-01 0.0000000000000000e+00  2.3255790357479053e-01 -3.6254752959188713e-01 0.0000000000000000e+00  3.0789476502160845e-01 -3.6767630612692725e-01 0.0000000000000000e+00  3.7815964389144169e-01 -3.7472164897014676e-01 0.0000000000000000e+00  4.4525654053223668e-01 -3.8839324721386498e-01 0.0000000000000000e+00  5.0767374002156507e-01 -3.9878845200615776e-01 0.0000000000000000e+00  4.9640168289539333e-01 -3.5828512320913786e-01 0.0000000000000000e+00  0.0000000000000000e+00 0.0000000000000000e+00 0.0000000000000000e+00  0.0000000000000000e+00 0.0000000000000000e+00 0.0000000000000000e+00  2.6304500752824211e-02 -2.5052986555617524e-01 0.0000000000000000e+00  8.2179395241231454e-02 -3.6168913708242723e-01 0.0000000000000000e+00  1.5323627808357990e-01 -3.9107734345755923e-01 0.0000000000000000e+00  2.3200441615179260e-01 -3.9194482094611982e-01 0.0000000000000000e+00  3.0900430288044917e-01 -3.7858407650065445e-01 0.0000000000000000e+00  3.7002888857510791e-01 -3.5980913286389171e-01 0.0000000000000000e+00  4.1547168420210945e-01 -3.6117288105511874e-01 0.0000000000000000e+00  4.6232813488340613e-01 -4.0210462115994100e-01 0.0000000000000000e+00  4.6929258234886490e-01 -4.0885682313398902e-01 0.0000000000000000e+00  0.0000000000000000e+00 0.0000000000000000e+00 0.0000000000000000e+00  0.0000000000000000e+00 0.0000000000000000e+00 0.0000000000000000e+00  2.2337521294827394e-02 -3.0161565379825633e-01 0.0000000000000000e+00  6.6797669757337447e-02 -4.4769796925232708e-01 0.0000000000000000e+00  1.3102506481410073e-01 -5.2303408357784065e-01 0.0000000000000000e+00  2.1755017936377202e-01 -5.6884287997092731e-01 0.0000000000000000e+00  2.9554653351866517e-01 -5.5732637319780631e-01 0.0000000000000000e+00  3.2812204141365658e-01 -5.2728882971554858e-01 0.0000000000000000e+00  3.4845555317411109e-01 -5.5781991911923745e-01 0.0000000000000000e+00  3.9429624587890311e-01 -5.9207978747539680e-01 0.0000000000000000e+00  4.3010996947251767e-01 -5.5803099707392678e-01 0.0000000000000000e+00  0.0000000000000000e+00 0.0000000000000000e+00 0.0000000000000000e+00  0.0000000000000000e+00 0.0000000000000000e+00 0.0000000000000000e+00  1.8562202158824703e-02 -3.2596963184607819e-01 0.0000000000000000e+00  5.6234701364111343e-02 -4.6803635723639925e-01 0.0000000000000000e+00  1.2020635936545847e-01 -5.2607354607503298e-01 0.0000000000000000e+00  2.0281961194299986e-01 -5.2734111057154753e-01 0.0000000000000000e+00  2.5614738512488011e-01 -3.9916165671840814e-01 0.0000000000000000e+00  2.5722642413481089e-01 -2.8966910517908351e-01 0.0000000000000000e+00  2.5079917333412238e-01 -2.8220421553346736e-01 0.0000000000000000e+00  2.4457463317602582e-01 -3.5441053032014547e-01 0.0000000000000000e+00  2.5190437230655827e-01 -5.1020477246895468e-01 0.0000000000000000e+00  0.0000000000000000e+00 0.0000000000000000e+00 0.0000000000000000e+00  0.0000000000000000e+00 0.0000000000000000e+00 0.0000000000000000e+00  1.2111740706458365e-02 -3.6041402409596429e-01 0.0000000000000000e+00  3.2441238207665403e-02 -5.3150951352923592e-01 0.0000000000000000e+00  6.1100014199431792e-02 -6.6054842834840033e-01 0.0000000000000000e+00  9.7180449441975403e-02 -7.8098303735671071e-01 0.0000000000000000e+00  1.2490084465898198e-01 -6.9640391550567848e-01 0.0000000000000000e+00  7.4975676218817178e-02 -6.6913090828808908e-01 0.0000000000000000e+00  7.8840314617824231e-02 -7.8009152625712730e-01 0.0000000000000000e+00  7.6903938277955386e-02 -8.8219433283798065e-01 0.0000000000000000e+00  1.7793208208294500e-01 -8.5262994921560997e-01 0.0000000000000000e+00  0.0000000000000000e+00 0.0000000000000000e+00 0.0000000000000000e+00  0.0000000000000000e+00 0.0000000000000000e+00 0.0000000000000000e+00  7.6587470950286304e-03 -3.6527214433849986e-01 0.0000000000000000e+00  1.9476470925846093e-02 -5.2278004271912892e-01 0.0000000000000000e+00  3.4968534790083813e-02 -6.2935940071330787e-01 0.0000000000000000e+00  4.5287618292334221e-02 -6.7711031692063128e-01 0.0000000000000000e+00  0.0000000000000000e+00 0.0000000000000000e+00 0.0000000000000000e+00  0.0000000000000000e+00 0.0000000000000000e+00 0.0000000000000000e+00  0.0000000000000000e+00 0.0000000000000000e+00 0.0000000000000000e+00  0.0000000000000000e+00 0.0000000000000000e+00 0.0000000000000000e+00  0.0000000000000000e+00 0.0000000000000000e+00 0.0000000000000000e+00  0.0000000000000000e+00 0.0000000000000000e+00 0.0000000000000000e+00  </DataArray> 
</PointData> 
</Piece>
</UnstructuredGrid>
</VTKFile>