<?xml version="1.0"?>
<VTKFile type="UnstructuredGrid"  version="0.1"  >
<UnstructuredGrid>
<Piece  NumberOfPoints="121" NumberOfCells="200">
<Points>
<DataArray  type="Float64"  NumberOfComponents="3"  format="ascii">0 0 0  0.1 0 0  0.2 0 0  0.3 0 0  0.4 0 0  0.5 0 0  0.6 0 0  0.7 0 0  0.8 0 0  0.9 0 0  1 0 0  0 0.1 0  0.1 0.1 0  0.2 0.1 0  0.3 0.1 0  0.4 0.1 0  0.5 0.1 0  0.6 0.1 0  0.7 0.1 0  0.8 0.1 0  0.9 0.1 0  1 0.1 0  0 0.2 0  0.1 0.2 0  0.2 0.2 0  0.3 0.2 0  0.4 0.2 0  0.5 0.2 0  0.6 0.2 0  0.7 0.2 0  0.8 0.2 0  0.9 0.2 0  1 0.2 0  0 0.3 0  0.1 0.3 0  0.2 0.3 0  0.3 0.3 0  0.4 0.3 0  0.5 0.3 0  0.6 0.3 0  0.7 0.3 0  0.8 0.3 0  0.9 0.3 0  1 0.3 0  0 0.4 0  0.1 0.4 0  0.2 0.4 0  0.3 0.4 0  0.4 0.4 0  0.5 0.4 0  0.6 0.4 0  0.7 0.4 0  0.8 0.4 0  0.9 0.4 0  1 0.4 0  0 0.5 0  0.1 0.5 0  0.2 0.5 0  0.3 0.5 0  0.4 0.5 0  0.5 0.5 0  0.6 0.5 0  0.7 0.5 0  0.8 0.5 0  0.9 0.5 0  1 0.5 0  0 0.6 0  0.1 0.6 0  0.2 0.6 0  0.3 0.6 0  0.4 0.6 0  0.5 0.6 0  0.6 0.6 0  0.7 0.6 0  0.8 0.6 0  0.9 0.6 0  1 0.6 0  0 0.7 0  0.1 0.7 0  0.2 0.7 0  0.3 0.7 0  0.4 0.7 0  0.5 0.7 0  0.6 0.7 0  0.7 0.7 0  0.8 0.7 0  0.9 0.7 0  1 0.7 0  0 0.8 0  0.1 0.8 0  0.2 0.8 0  0.3 0.8 0  0.4 0.8 0  0.5 0.8 0  0.6 0.8 0  0.7 0.8 0  0.8 0.8 0  0.9 0.8 0  1 0.8 0  0 0.9 0  0.1 0.9 0  0.2 0.9 0  0.3 0.9 0  0.4 0.9 0  0.5 0.9 0  0.6 0.9 0  0.7 0.9 0  0.8 0.9 0  0.9 0.9 0  1 0.9 0  0 1 0  0.1 1 0  0.2 1 0  0.3 1 0  0.4 1 0  0.5 1 0  0.6 1 0  0.7 1 0  0.8 1 0  0.9 1 0  1 1 0  </DataArray>
</Points>
<Cells>
<DataArray  type="UInt32"  Name="connectivity"  format="ascii">0 1 12  0 11 12  1 2 13  1 12 13  2 3 14  2 13 14  3 4 15  3 14 15  4 5 16  4 15 16  5 6 17  5 16 17  6 7 18  6 17 18  7 8 19  7 18 19  8 9 20  8 19 20  9 10 21  9 20 21  11 12 23  11 22 23  12 13 24  12 23 24  13 14 25  13 24 25  14 15 26  14 25 26  15 16 27  15 26 27  16 17 28  16 27 28  17 18 29  17 28 29  18 19 30  18 29 30  19 20 31  19 30 31  20 21 32  20 31 32  22 23 34  22 33 34  23 24 35  23 34 35  24 25 36  24 35 36  25 26 37  25 36 37  26 27 38  26 37 38  27 28 39  27 38 39  28 29 40  28 39 40  29 30 41  29 40 41  30 31 42  30 41 42  31 32 43  31 42 43  33 34 45  33 44 45  34 35 46  34 45 46  35 36 47  35 46 47  36 37 48  36 47 48  37 38 49  37 48 49  38 39 50  38 49 50  39 40 51  39 50 51  40 41 52  40 51 52  41 42 53  41 52 53  42 43 54  42 53 54  44 45 56  44 55 56  45 46 57  45 56 57  46 47 58  46 57 58  47 48 59  47 58 59  48 49 60  48 59 60  49 50 61  49 60 61  50 51 62  50 61 62  51 52 63  51 62 63  52 53 64  52 63 64  53 54 65  53 64 65  55 56 67  55 66 67  56 57 68  56 67 68  57 58 69  57 68 69  58 59 70  58 69 70  59 60 71  59 70 71  60 61 72  60 71 72  61 62 73  61 72 73  62 63 74  62 73 74  63 64 75  63 74 75  64 65 76  64 75 76  66 67 78  66 77 78  67 68 79  67 78 79  68 69 80  68 79 80  69 70 81  69 80 81  70 71 82  70 81 82  71 72 83  71 82 83  72 73 84  72 83 84  73 74 85  73 84 85  74 75 86  74 85 86  75 76 87  75 86 87  77 78 89  77 88 89  78 79 90  78 89 90  79 80 91  79 90 91  80 81 92  80 91 92  81 82 93  81 92 93  82 83 94  82 93 94  83 84 95  83 94 95  84 85 96  84 95 96  85 86 97  85 96 97  86 87 98  86 97 98  88 89 100  88 99 100  89 90 101  89 100 101  90 91 102  90 101 102  91 92 103  91 102 103  92 93 104  92 103 104  93 94 105  93 104 105  94 95 106  94 105 106  95 96 107  95 106 107  96 97 108  96 107 108  97 98 109  97 108 109  99 100 111  99 110 111  100 101 112  100 111 112  101 102 113  101 112 113  102 103 114  102 113 114  103 104 115  103 114 115  104 105 116  104 115 116  105 106 117  105 116 117  106 107 118  106 117 118  107 108 119  107 118 119  108 109 120  108 119 120  </DataArray>
<DataArray  type="UInt32"  Name="offsets"  format="ascii">3 6 9 12 15 18 21 24 27 30 33 36 39 42 45 48 51 54 57 60 63 66 69 72 75 78 81 84 87 90 93 96 99 102 105 108 111 114 117 120 123 126 129 132 135 138 141 144 147 150 153 156 159 162 165 168 171 174 177 180 183 186 189 192 195 198 201 204 207 210 213 216 219 222 225 228 231 234 237 240 243 246 249 252 255 258 261 264 267 270 273 276 279 282 285 288 291 294 297 300 303 306 309 312 315 318 321 324 327 330 333 336 339 342 345 348 351 354 357 360 363 366 369 372 375 378 381 384 387 390 393 396 399 402 405 408 411 414 417 420 423 426 429 432 435 438 441 444 447 450 453 456 459 462 465 468 471 474 477 480 483 486 489 492 495 498 501 504 507 510 513 516 519 522 525 528 531 534 537 540 543 546 549 552 555 558 561 564 567 570 573 576 579 582 585 588 591 594 597 600 </DataArray>
<DataArray  type="UInt8"  Name="types"  format="ascii">5 5 5 5 5 5 5 5 5 5 5 5 5 5 5 5 5 5 5 5 5 5 5 5 5 5 5 5 5 5 5 5 5 5 5 5 5 5 5 5 5 5 5 5 5 5 5 5 5 5 5 5 5 5 5 5 5 5 5 5 5 5 5 5 5 5 5 5 5 5 5 5 5 5 5 5 5 5 5 5 5 5 5 5 5 5 5 5 5 5 5 5 5 5 5 5 5 5 5 5 5 5 5 5 5 5 5 5 5 5 5 5 5 5 5 5 5 5 5 5 5 5 5 5 5 5 5 5 5 5 5 5 5 5 5 5 5 5 5 5 5 5 5 5 5 5 5 5 5 5 5 5 5 5 5 5 5 5 5 5 5 5 5 5 5 5 5 5 5 5 5 5 5 5 5 5 5 5 5 5 5 5 5 5 5 5 5 5 5 5 5 5 5 5 5 5 5 5 5 5 </DataArray>
</Cells>
<PointData  Vectors="f_47"> 
<DataArray  type="Float64"  Name="f_47"  NumberOfComponents="3" format="ascii">0.0000000000000000e+00 0.0000000000000000e+00 0.0000000000000000e+00  0.0000000000000000e+00 0.0000000000000000e+00 0.0000000000000000e+00  0.0000000000000000e+00 0.0000000000000000e+00 0.0000000000000000e+00  0.0000000000000000e+00 0.0000000000000000e+00 0.0000000000000000e+00  0.0000000000000000e+00 0.0000000000000000e+00 0.0000000000000000e+00  0.0000000000000000e+00 0.0000000000000000e+00 0.0000000000000000e+00  0.0000000000000000e+00 0.0000000000000000e+00 0.0000000000000000e+00  0.0000000000000000e+00 0.0000000000000000e+00 0.0000000000000000e+00  0.0000000000000000e+00 0.0000000000000000e+00 0.0000000000000000e+00  0.0000000000000000e+00 0.0000000000000000e+00 0.0000000000000000e+00  0.0000000000000000e+00 0.0000000000000000e+00 0.0000000000000000e+00  0.0000000000000000e+00 0.0000000000000000e+00 0.0000000000000000e+00  9.9625441394264325e-02 -1.0528264373539799e-01 0.0000000000000000e+00  2.6897635699551087e-01 -1.3105633755865950e-01 0.0000000000000000e+00  4.5579673738909093e-01 -1.3524175354685450e-01 0.0000000000000000e+00  6.4604588575797084e-01 -1.3831607564730392e-01 0.0000000000000000e+00  8.3969697741623217e-01 -1.4168989412167671e-01 0.0000000000000000e+00  1.0415329760035519e+00 -1.4550111472925875e-01 0.0000000000000000e+00  1.2494765946575341e+00 -1.4657630580539535e-01 0.0000000000000000e+00  1.4404098847587923e+00 -1.3984388443711088e-01 0.0000000000000000e+00  1.6270680667071959e+00 -1.1994880205644781e-01 0.0000000000000000e+00  1.7728009581854403e+00 -9.1090639819482747e-02 0.0000000000000000e+00  0.0000000000000000e+00 0.0000000000000000e+00 0.0000000000000000e+00  1.0484852264245810e-01 -2.6622563277642652e-01 0.0000000000000000e+00  2.8356638029402514e-01 -3.2294967969400012e-01 0.0000000000000000e+00  4.8169235200928129e-01 -3.3051424378793826e-01 0.0000000000000000e+00  6.8227522970038068e-01 -3.3326185159126664e-01 0.0000000000000000e+00  8.8116449232376193e-01 -3.3239775032066993e-01 0.0000000000000000e+00  1.0795802682115734e+00 -3.2899666995693477e-01 0.0000000000000000e+00  1.3117747266201860e+00 -3.3658287398948195e-01 0.0000000000000000e+00  1.5697881977334482e+00 -3.4511242978055279e-01 0.0000000000000000e+00  1.7577580579484267e+00 -3.2504636426093125e-01 0.0000000000000000e+00  1.9775916286858319e+00 -2.6937738503158820e-01 0.0000000000000000e+00  0.0000000000000000e+00 0.0000000000000000e+00 0.0000000000000000e+00  1.0113214614107480e-01 -4.3883070504013738e-01 0.0000000000000000e+00  2.7716299137499267e-01 -5.3555789947861365e-01 0.0000000000000000e+00  4.7215751092264518e-01 -5.6147721116058136e-01 0.0000000000000000e+00  6.7011960662036019e-01 -5.8597929830858164e-01 0.0000000000000000e+00  8.6357123639939448e-01 -6.0931262155459154e-01 0.0000000000000000e+00  1.0338180332282809e+00 -6.1895233151357409e-01 0.0000000000000000e+00  1.1970763249155913e+00 -6.1672974956253002e-01 0.0000000000000000e+00  1.4957032171462561e+00 -6.4640138287855431e-01 0.0000000000000000e+00  1.8947056991251916e+00 -6.2381086476427361e-01 0.0000000000000000e+00  2.0781378070318581e+00 -4.6214859848331535e-01 0.0000000000000000e+00  0.0000000000000000e+00 0.0000000000000000e+00 0.0000000000000000e+00  1.0605564774582489e-01 -5.6828779112449779e-01 0.0000000000000000e+00  2.7873287378083622e-01 -6.6670413036514065e-01 0.0000000000000000e+00  4.7043537431989857e-01 -6.5863266895599171e-01 0.0000000000000000e+00  6.6585861426324844e-01 -6.3626301888892767e-01 0.0000000000000000e+00  8.5810963001001539e-01 -6.0010567070538912e-01 0.0000000000000000e+00  1.0161344589639301e+00 -5.2951753713785987e-01 0.0000000000000000e+00  1.0877411933979313e+00 -4.1919853070995478e-01 0.0000000000000000e+00  1.1009847559973576e+00 -3.5944645660482533e-01 0.0000000000000000e+00  1.5094482841345009e+00 -6.5841486942459315e-01 0.0000000000000000e+00  2.3611463200583813e+00 -9.5989382958637515e-01 0.0000000000000000e+00  0.0000000000000000e+00 0.0000000000000000e+00 0.0000000000000000e+00  8.7599495785964029e-02 -7.8733781936209768e-01 0.0000000000000000e+00  2.4721411628595472e-01 -9.7368887447970942e-01 0.0000000000000000e+00  4.2850535789430516e-01 -1.0639027307944391e+00 0.0000000000000000e+00  6.2099767550678209e-01 -1.1564004577489626e+00 0.0000000000000000e+00  8.1431161079877579e-01 -1.2441301529314790e+00 0.0000000000000000e+00  9.8532604349036690e-01 -1.3164838336655640e+00 0.0000000000000000e+00  1.0908305678417565e+00 -1.3149371854255025e+00 0.0000000000000000e+00  1.0429393457398188e+00 -1.1143095712701128e+00 0.0000000000000000e+00  5.6862822594830331e-01 -5.0856405059957954e-01 0.0000000000000000e+00  0.0000000000000000e+00 0.0000000000000000e+00 0.0000000000000000e+00  0.0000000000000000e+00 0.0000000000000000e+00 0.0000000000000000e+00  1.0970461952081020e-01 -8.2872738098871146e-01 0.0000000000000000e+00  2.6812275942531261e-01 -9.4147267380072075e-01 0.0000000000000000e+00  4.4700078666165027e-01 -8.9115028581142974e-01 0.0000000000000000e+00  6.3174168883516235e-01 -8.0722028519262690e-01 0.0000000000000000e+00  8.2610143819746118e-01 -7.2467592078768883e-01 0.0000000000000000e+00  9.9797605909316467e-01 -6.4820902477041265e-01 0.0000000000000000e+00  1.0668748881322287e+00 -5.6759909211685644e-01 0.0000000000000000e+00  9.7005061735095532e-01 -5.5574874982523081e-01 0.0000000000000000e+00  8.2154886776727509e-01 -2.4622871700180823e-01 0.0000000000000000e+00  0.0000000000000000e+00 0.0000000000000000e+00 0.0000000000000000e+00  0.0000000000000000e+00 0.0000000000000000e+00 0.0000000000000000e+00  5.8399585315340348e-02 -1.0862018310165822e+00 0.0000000000000000e+00  1.6108801909846279e-01 -1.3428040562609693e+00 0.0000000000000000e+00  3.0916788041188153e-01 -1.5492857159204505e+00 0.0000000000000000e+00  5.2728711905683612e-01 -1.7758833379275807e+00 0.0000000000000000e+00  7.5792706250574737e-01 -1.9009434402661574e+00 0.0000000000000000e+00  8.6053192222821173e-01 -1.9331998556226375e+00 0.0000000000000000e+00  9.4265361791330526e-01 -2.1147442888104191e+00 0.0000000000000000e+00  1.0460572274655986e+00 -2.3088229692984421e+00 0.0000000000000000e+00  -7.3314455835205974e-02 -2.1989381464559896e+00 0.0000000000000000e+00  0.0000000000000000e+00 0.0000000000000000e+00 0.0000000000000000e+00  0.0000000000000000e+00 0.0000000000000000e+00 0.0000000000000000e+00  8.7265095783216215e-02 -1.0561013411151243e+00 0.0000000000000000e+00  1.9501125468718505e-01 -1.2000555824385999e+00 0.0000000000000000e+00  3.6553665295118870e-01 -1.2076149588578693e+00 0.0000000000000000e+00  5.1575648596112367e-01 -1.1458118926754286e+00 0.0000000000000000e+00  6.6895004850029716e-01 -7.2850189476574101e-01 0.0000000000000000e+00  7.5841160601496982e-01 -4.2138328106300688e-01 0.0000000000000000e+00  7.8778476586434143e-01 -4.0557262154200174e-01 0.0000000000000000e+00  5.5198333070234529e-01 -6.9795977410658128e-01 0.0000000000000000e+00  7.4662390212618024e-01 -3.6368021253271771e-01 0.0000000000000000e+00  0.0000000000000000e+00 0.0000000000000000e+00 0.0000000000000000e+00  0.0000000000000000e+00 0.0000000000000000e+00 0.0000000000000000e+00  1.6680335361393930e-02 -1.2150970647234056e+00 0.0000000000000000e+00  2.6750422277895775e-02 -1.4695618173795741e+00 0.0000000000000000e+00  3.1640442488390497e-04 -1.7712683480499618e+00 0.0000000000000000e+00  -2.7917907479139002e-02 -2.2623952906831497e+00 0.0000000000000000e+00  2.1198200494014807e-01 -2.2816156765994458e+00 0.0000000000000000e+00  1.0625300466522365e-01 -2.5133264424266248e+00 0.0000000000000000e+00  2.1051895574612661e-01 -2.8431596264475649e+00 0.0000000000000000e+00  3.9657426654832828e-01 -3.5385375846423326e+00 0.0000000000000000e+00  3.0137141879815230e+00 -2.4442688108299766e+00 0.0000000000000000e+00  0.0000000000000000e+00 0.0000000000000000e+00 0.0000000000000000e+00  0.0000000000000000e+00 0.0000000000000000e+00 0.0000000000000000e+00  -1.0441100500172386e-03 -1.1571285317921791e+00 0.0000000000000000e+00  -1.7933932588736559e-03 -1.3163999034892009e+00 0.0000000000000000e+00  -4.7962876095636577e-02 -1.4756098363776984e+00 0.0000000000000000e+00  -1.9532571372508750e-01 -1.6677220040011689e+00 0.0000000000000000e+00  0.0000000000000000e+00 0.0000000000000000e+00 0.0000000000000000e+00  0.0000000000000000e+00 0.0000000000000000e+00 0.0000000000000000e+00  0.0000000000000000e+00 0.0000000000000000e+00 0.0000000000000000e+00  0.0000000000000000e+00 0.0000000000000000e+00 0.0000000000000000e+00  0.0000000000000000e+00 0.0000000000000000e+00 0.0000000000000000e+00  0.0000000000000000e+00 0.0000000000000000e+00 0.0000000000000000e+00  </DataArray> 
</PointData> 
</Piece>
</UnstructuredGrid>
</VTKFile>