<?xml version="1.0"?>
<VTKFile type="UnstructuredGrid"  version="0.1"  >
<UnstructuredGrid>
<Piece  NumberOfPoints="121" NumberOfCells="200">
<Points>
<DataArray  type="Float64"  NumberOfComponents="3"  format="ascii">0 0 0  0.1 0 0  0.2 0 0  0.3 0 0  0.4 0 0  0.5 0 0  0.6 0 0  0.7 0 0  0.8 0 0  0.9 0 0  1 0 0  0 0.1 0  0.1 0.1 0  0.2 0.1 0  0.3 0.1 0  0.4 0.1 0  0.5 0.1 0  0.6 0.1 0  0.7 0.1 0  0.8 0.1 0  0.9 0.1 0  1 0.1 0  0 0.2 0  0.1 0.2 0  0.2 0.2 0  0.3 0.2 0  0.4 0.2 0  0.5 0.2 0  0.6 0.2 0  0.7 0.2 0  0.8 0.2 0  0.9 0.2 0  1 0.2 0  0 0.3 0  0.1 0.3 0  0.2 0.3 0  0.3 0.3 0  0.4 0.3 0  0.5 0.3 0  0.6 0.3 0  0.7 0.3 0  0.8 0.3 0  0.9 0.3 0  1 0.3 0  0 0.4 0  0.1 0.4 0  0.2 0.4 0  0.3 0.4 0  0.4 0.4 0  0.5 0.4 0  0.6 0.4 0  0.7 0.4 0  0.8 0.4 0  0.9 0.4 0  1 0.4 0  0 0.5 0  0.1 0.5 0  0.2 0.5 0  0.3 0.5 0  0.4 0.5 0  0.5 0.5 0  0.6 0.5 0  0.7 0.5 0  0.8 0.5 0  0.9 0.5 0  1 0.5 0  0 0.6 0  0.1 0.6 0  0.2 0.6 0  0.3 0.6 0  0.4 0.6 0  0.5 0.6 0  0.6 0.6 0  0.7 0.6 0  0.8 0.6 0  0.9 0.6 0  1 0.6 0  0 0.7 0  0.1 0.7 0  0.2 0.7 0  0.3 0.7 0  0.4 0.7 0  0.5 0.7 0  0.6 0.7 0  0.7 0.7 0  0.8 0.7 0  0.9 0.7 0  1 0.7 0  0 0.8 0  0.1 0.8 0  0.2 0.8 0  0.3 0.8 0  0.4 0.8 0  0.5 0.8 0  0.6 0.8 0  0.7 0.8 0  0.8 0.8 0  0.9 0.8 0  1 0.8 0  0 0.9 0  0.1 0.9 0  0.2 0.9 0  0.3 0.9 0  0.4 0.9 0  0.5 0.9 0  0.6 0.9 0  0.7 0.9 0  0.8 0.9 0  0.9 0.9 0  1 0.9 0  0 1 0  0.1 1 0  0.2 1 0  0.3 1 0  0.4 1 0  0.5 1 0  0.6 1 0  0.7 1 0  0.8 1 0  0.9 1 0  1 1 0  </DataArray>
</Points>
<Cells>
<DataArray  type="UInt32"  Name="connectivity"  format="ascii">0 1 12  0 11 12  1 2 13  1 12 13  2 3 14  2 13 14  3 4 15  3 14 15  4 5 16  4 15 16  5 6 17  5 16 17  6 7 18  6 17 18  7 8 19  7 18 19  8 9 20  8 19 20  9 10 21  9 20 21  11 12 23  11 22 23  12 13 24  12 23 24  13 14 25  13 24 25  14 15 26  14 25 26  15 16 27  15 26 27  16 17 28  16 27 28  17 18 29  17 28 29  18 19 30  18 29 30  19 20 31  19 30 31  20 21 32  20 31 32  22 23 34  22 33 34  23 24 35  23 34 35  24 25 36  24 35 36  25 26 37  25 36 37  26 27 38  26 37 38  27 28 39  27 38 39  28 29 40  28 39 40  29 30 41  29 40 41  30 31 42  30 41 42  31 32 43  31 42 43  33 34 45  33 44 45  34 35 46  34 45 46  35 36 47  35 46 47  36 37 48  36 47 48  37 38 49  37 48 49  38 39 50  38 49 50  39 40 51  39 50 51  40 41 52  40 51 52  41 42 53  41 52 53  42 43 54  42 53 54  44 45 56  44 55 56  45 46 57  45 56 57  46 47 58  46 57 58  47 48 59  47 58 59  48 49 60  48 59 60  49 50 61  49 60 61  50 51 62  50 61 62  51 52 63  51 62 63  52 53 64  52 63 64  53 54 65  53 64 65  55 56 67  55 66 67  56 57 68  56 67 68  57 58 69  57 68 69  58 59 70  58 69 70  59 60 71  59 70 71  60 61 72  60 71 72  61 62 73  61 72 73  62 63 74  62 73 74  63 64 75  63 74 75  64 65 76  64 75 76  66 67 78  66 77 78  67 68 79  67 78 79  68 69 80  68 79 80  69 70 81  69 80 81  70 71 82  70 81 82  71 72 83  71 82 83  72 73 84  72 83 84  73 74 85  73 84 85  74 75 86  74 85 86  75 76 87  75 86 87  77 78 89  77 88 89  78 79 90  78 89 90  79 80 91  79 90 91  80 81 92  80 91 92  81 82 93  81 92 93  82 83 94  82 93 94  83 84 95  83 94 95  84 85 96  84 95 96  85 86 97  85 96 97  86 87 98  86 97 98  88 89 100  88 99 100  89 90 101  89 100 101  90 91 102  90 101 102  91 92 103  91 102 103  92 93 104  92 103 104  93 94 105  93 104 105  94 95 106  94 105 106  95 96 107  95 106 107  96 97 108  96 107 108  97 98 109  97 108 109  99 100 111  99 110 111  100 101 112  100 111 112  101 102 113  101 112 113  102 103 114  102 113 114  103 104 115  103 114 115  104 105 116  104 115 116  105 106 117  105 116 117  106 107 118  106 117 118  107 108 119  107 118 119  108 109 120  108 119 120  </DataArray>
<DataArray  type="UInt32"  Name="offsets"  format="ascii">3 6 9 12 15 18 21 24 27 30 33 36 39 42 45 48 51 54 57 60 63 66 69 72 75 78 81 84 87 90 93 96 99 102 105 108 111 114 117 120 123 126 129 132 135 138 141 144 147 150 153 156 159 162 165 168 171 174 177 180 183 186 189 192 195 198 201 204 207 210 213 216 219 222 225 228 231 234 237 240 243 246 249 252 255 258 261 264 267 270 273 276 279 282 285 288 291 294 297 300 303 306 309 312 315 318 321 324 327 330 333 336 339 342 345 348 351 354 357 360 363 366 369 372 375 378 381 384 387 390 393 396 399 402 405 408 411 414 417 420 423 426 429 432 435 438 441 444 447 450 453 456 459 462 465 468 471 474 477 480 483 486 489 492 495 498 501 504 507 510 513 516 519 522 525 528 531 534 537 540 543 546 549 552 555 558 561 564 567 570 573 576 579 582 585 588 591 594 597 600 </DataArray>
<DataArray  type="UInt8"  Name="types"  format="ascii">5 5 5 5 5 5 5 5 5 5 5 5 5 5 5 5 5 5 5 5 5 5 5 5 5 5 5 5 5 5 5 5 5 5 5 5 5 5 5 5 5 5 5 5 5 5 5 5 5 5 5 5 5 5 5 5 5 5 5 5 5 5 5 5 5 5 5 5 5 5 5 5 5 5 5 5 5 5 5 5 5 5 5 5 5 5 5 5 5 5 5 5 5 5 5 5 5 5 5 5 5 5 5 5 5 5 5 5 5 5 5 5 5 5 5 5 5 5 5 5 5 5 5 5 5 5 5 5 5 5 5 5 5 5 5 5 5 5 5 5 5 5 5 5 5 5 5 5 5 5 5 5 5 5 5 5 5 5 5 5 5 5 5 5 5 5 5 5 5 5 5 5 5 5 5 5 5 5 5 5 5 5 5 5 5 5 5 5 5 5 5 5 5 5 5 5 5 5 5 5 </DataArray>
</Cells>
<PointData  Vectors="f_47"> 
<DataArray  type="Float64"  Name="f_47"  NumberOfComponents="3" format="ascii">0.0000000000000000e+00 0.0000000000000000e+00 0.0000000000000000e+00  0.0000000000000000e+00 0.0000000000000000e+00 0.0000000000000000e+00  0.0000000000000000e+00 0.0000000000000000e+00 0.0000000000000000e+00  0.0000000000000000e+00 0.0000000000000000e+00 0.0000000000000000e+00  0.0000000000000000e+00 0.0000000000000000e+00 0.0000000000000000e+00  0.0000000000000000e+00 0.0000000000000000e+00 0.0000000000000000e+00  0.0000000000000000e+00 0.0000000000000000e+00 0.0000000000000000e+00  0.0000000000000000e+00 0.0000000000000000e+00 0.0000000000000000e+00  0.0000000000000000e+00 0.0000000000000000e+00 0.0000000000000000e+00  0.0000000000000000e+00 0.0000000000000000e+00 0.0000000000000000e+00  0.0000000000000000e+00 0.0000000000000000e+00 0.0000000000000000e+00  0.0000000000000000e+00 0.0000000000000000e+00 0.0000000000000000e+00  4.8131893726719575e-02 -4.8783780383496574e-02 0.0000000000000000e+00  1.0626608725886735e-01 -4.9115496510824724e-02 0.0000000000000000e+00  1.6509053502402027e-01 -4.9022081524469324e-02 0.0000000000000000e+00  2.2370241550384010e-01 -4.8375780107432056e-02 0.0000000000000000e+00  2.8121141155151796e-01 -4.6650204957672872e-02 0.0000000000000000e+00  3.3606633425916571e-01 -4.3152875181020213e-02 0.0000000000000000e+00  3.8582928171359093e-01 -3.7099814982335805e-02 0.0000000000000000e+00  4.2680926390949292e-01 -2.7928708877669933e-02 0.0000000000000000e+00  4.5346958085471323e-01 -1.6376299725012658e-02 0.0000000000000000e+00  4.4556528935740480e-01 -5.0981058932188924e-03 0.0000000000000000e+00  0.0000000000000000e+00 0.0000000000000000e+00 0.0000000000000000e+00  4.8321848590661527e-02 -1.0757885567621486e-01 0.0000000000000000e+00  1.0952740553940148e-01 -1.1061224850101369e-01 0.0000000000000000e+00  1.7210770495246691e-01 -1.1090079072914809e-01 0.0000000000000000e+00  2.3522255454660770e-01 -1.1004283472991587e-01 0.0000000000000000e+00  2.9818025310438967e-01 -1.0697986269885389e-01 0.0000000000000000e+00  3.5956322003822172e-01 -1.0018525618214430e-01 0.0000000000000000e+00  4.1683882614225282e-01 -8.7805500339186479e-02 0.0000000000000000e+00  4.6604364609099463e-01 -6.7610760494926023e-02 0.0000000000000000e+00  4.9950130692171435e-01 -3.9472113450621293e-02 0.0000000000000000e+00  5.1021970586587850e-01 -1.3437690284133301e-02 0.0000000000000000e+00  0.0000000000000000e+00 0.0000000000000000e+00 0.0000000000000000e+00  4.7803988488909335e-02 -1.6662415345229456e-01 0.0000000000000000e+00  1.0899195857078607e-01 -1.7302683258989060e-01 0.0000000000000000e+00  1.7238919102804501e-01 -1.7450344314414626e-01 0.0000000000000000e+00  2.3760291098545139e-01 -1.7459112097756160e-01 0.0000000000000000e+00  3.0440439507354233e-01 -1.7168546168530224e-01 0.0000000000000000e+00  3.7175229133010140e-01 -1.6330575397725169e-01 0.0000000000000000e+00  4.3729426539719007e-01 -1.4634272814444535e-01 0.0000000000000000e+00  4.9643199499236668e-01 -1.1735589683615665e-01 0.0000000000000000e+00  5.4548523616640920e-01 -7.2320121589889652e-02 0.0000000000000000e+00  5.6067123164173871e-01 -2.5629823499646945e-02 0.0000000000000000e+00  0.0000000000000000e+00 0.0000000000000000e+00 0.0000000000000000e+00  4.6621502536848394e-02 -2.2489962793857629e-01 0.0000000000000000e+00  1.0692733395308121e-01 -2.3530962486551915e-01 0.0000000000000000e+00  1.7051071755181710e-01 -2.3919187172824247e-01 0.0000000000000000e+00  2.3769276089629357e-01 -2.4202974629441912e-01 0.0000000000000000e+00  3.0910887851175317e-01 -2.4174485885681885e-01 0.0000000000000000e+00  3.8446381146189962e-01 -2.3475790883202605e-01 0.0000000000000000e+00  4.6060997231321815e-01 -2.1617580869793240e-01 0.0000000000000000e+00  5.2797671709081162e-01 -1.8115044702804708e-01 0.0000000000000000e+00  5.6344829854109768e-01 -1.2395429328626789e-01 0.0000000000000000e+00  6.5165352767861395e-01 -4.7012958575464031e-02 0.0000000000000000e+00  0.0000000000000000e+00 0.0000000000000000e+00 0.0000000000000000e+00  4.4323375965684718e-02 -2.8129922069918933e-01 0.0000000000000000e+00  1.0244434399372289e-01 -2.9651682206046776e-01 0.0000000000000000e+00  1.6508019589806275e-01 -3.0433683922388322e-01 0.0000000000000000e+00  2.3345551914766258e-01 -3.1231599507988012e-01 0.0000000000000000e+00  3.0953682620169154e-01 -3.1812929188587535e-01 0.0000000000000000e+00  3.9503707239825470e-01 -3.1716750395137011e-01 0.0000000000000000e+00  4.8822544706808502e-01 -3.0100689257052454e-01 0.0000000000000000e+00  5.7116147779246118e-01 -2.5724270000307853e-01 0.0000000000000000e+00  5.6316929762572787e-01 -1.6834679398974162e-01 0.0000000000000000e+00  0.0000000000000000e+00 0.0000000000000000e+00 0.0000000000000000e+00  0.0000000000000000e+00 0.0000000000000000e+00 0.0000000000000000e+00  4.0352630087681057e-02 -3.3412625947276742e-01 0.0000000000000000e+00  9.4302426022723276e-02 -3.5505149572970840e-01 0.0000000000000000e+00  1.5406569767883574e-01 -3.6867394866095149e-01 0.0000000000000000e+00  2.2170590809381288e-01 -3.8463604932032047e-01 0.0000000000000000e+00  3.0063004585857728e-01 -4.0105878618604013e-01 0.0000000000000000e+00  3.9628025439602915e-01 -4.1342742209916183e-01 0.0000000000000000e+00  5.1098140297950501e-01 -4.1134561456819391e-01 0.0000000000000000e+00  6.2374562475992379e-01 -3.7174282501718608e-01 0.0000000000000000e+00  6.1593709694372234e-01 -2.3841400389981543e-01 0.0000000000000000e+00  0.0000000000000000e+00 0.0000000000000000e+00 0.0000000000000000e+00  0.0000000000000000e+00 0.0000000000000000e+00 0.0000000000000000e+00  3.4082963898445978e-02 -3.8099433765394680e-01 0.0000000000000000e+00  8.0836366494995038e-02 -4.0859404224695728e-01 0.0000000000000000e+00  1.3468187550461974e-01 -4.3002177599766617e-01 0.0000000000000000e+00  1.9842918862809039e-01 -4.5630625678558939e-01 0.0000000000000000e+00  2.7419184462305968e-01 -4.8812636913433721e-01 0.0000000000000000e+00  3.7088463788488280e-01 -5.2702452844546999e-01 0.0000000000000000e+00  5.0276080191469763e-01 -5.6292031171364054e-01 0.0000000000000000e+00  6.4507985082600350e-01 -5.4762058356569410e-01 0.0000000000000000e+00  6.5127118595048428e-01 -4.0476287081379214e-01 0.0000000000000000e+00  0.0000000000000000e+00 0.0000000000000000e+00 0.0000000000000000e+00  0.0000000000000000e+00 0.0000000000000000e+00 0.0000000000000000e+00  2.5384665405918466e-02 -4.1742043587270450e-01 0.0000000000000000e+00  6.1804237166209121e-02 -4.5191404708090882e-01 0.0000000000000000e+00  1.0972199396327875e-01 -4.8053482068289327e-01 0.0000000000000000e+00  1.7338013020015350e-01 -5.0608092828419615e-01 0.0000000000000000e+00  2.3927113871887604e-01 -5.2076829763066601e-01 0.0000000000000000e+00  3.3799594890909962e-01 -5.5346663678382990e-01 0.0000000000000000e+00  5.0287885061686299e-01 -5.4893325249936498e-01 0.0000000000000000e+00  6.5363568287446960e-01 -3.7034908850460241e-01 0.0000000000000000e+00  3.2107136520150187e-01 1.2639678953921825e-02 0.0000000000000000e+00  0.0000000000000000e+00 0.0000000000000000e+00 0.0000000000000000e+00  0.0000000000000000e+00 0.0000000000000000e+00 0.0000000000000000e+00  1.3734583655429065e-02 -4.4400495143851182e-01 0.0000000000000000e+00  3.0596443120579266e-02 -4.9007768090776715e-01 0.0000000000000000e+00  5.6835272765375998e-02 -5.4387157497783578e-01 0.0000000000000000e+00  9.7379486468795060e-02 -6.3043129029053713e-01 0.0000000000000000e+00  1.4436224313444629e-01 -7.8381552254577325e-01 0.0000000000000000e+00  1.6661946446490766e-01 -9.8652964281078470e-01 0.0000000000000000e+00  2.2253668510167005e-01 -1.3292110795905567e+00 0.0000000000000000e+00  3.4413001244027180e-01 -1.9559477685748778e+00 0.0000000000000000e+00  6.0276784949102102e-01 -2.9124887551898007e+00 0.0000000000000000e+00  0.0000000000000000e+00 0.0000000000000000e+00 0.0000000000000000e+00  0.0000000000000000e+00 0.0000000000000000e+00 0.0000000000000000e+00  3.9727221162399661e-03 -4.2130770034234305e-01 0.0000000000000000e+00  1.0480489551825635e-02 -4.8302954269260889e-01 0.0000000000000000e+00  2.1126395703914797e-02 -5.3222760030908245e-01 0.0000000000000000e+00  3.8807702868295629e-02 -6.1202940323226951e-01 0.0000000000000000e+00  0.0000000000000000e+00 0.0000000000000000e+00 0.0000000000000000e+00  0.0000000000000000e+00 0.0000000000000000e+00 0.0000000000000000e+00  0.0000000000000000e+00 0.0000000000000000e+00 0.0000000000000000e+00  0.0000000000000000e+00 0.0000000000000000e+00 0.0000000000000000e+00  0.0000000000000000e+00 0.0000000000000000e+00 0.0000000000000000e+00  0.0000000000000000e+00 0.0000000000000000e+00 0.0000000000000000e+00  </DataArray> 
</PointData> 
</Piece>
</UnstructuredGrid>
</VTKFile>