<?xml version="1.0"?>
<VTKFile type="UnstructuredGrid"  version="0.1"  >
<UnstructuredGrid>
<Piece  NumberOfPoints="121" NumberOfCells="200">
<Points>
<DataArray  type="Float64"  NumberOfComponents="3"  format="ascii">0 0 0  0.1 0 0  0.2 0 0  0.3 0 0  0.4 0 0  0.5 0 0  0.6 0 0  0.7 0 0  0.8 0 0  0.9 0 0  1 0 0  0 0.1 0  0.1 0.1 0  0.2 0.1 0  0.3 0.1 0  0.4 0.1 0  0.5 0.1 0  0.6 0.1 0  0.7 0.1 0  0.8 0.1 0  0.9 0.1 0  1 0.1 0  0 0.2 0  0.1 0.2 0  0.2 0.2 0  0.3 0.2 0  0.4 0.2 0  0.5 0.2 0  0.6 0.2 0  0.7 0.2 0  0.8 0.2 0  0.9 0.2 0  1 0.2 0  0 0.3 0  0.1 0.3 0  0.2 0.3 0  0.3 0.3 0  0.4 0.3 0  0.5 0.3 0  0.6 0.3 0  0.7 0.3 0  0.8 0.3 0  0.9 0.3 0  1 0.3 0  0 0.4 0  0.1 0.4 0  0.2 0.4 0  0.3 0.4 0  0.4 0.4 0  0.5 0.4 0  0.6 0.4 0  0.7 0.4 0  0.8 0.4 0  0.9 0.4 0  1 0.4 0  0 0.5 0  0.1 0.5 0  0.2 0.5 0  0.3 0.5 0  0.4 0.5 0  0.5 0.5 0  0.6 0.5 0  0.7 0.5 0  0.8 0.5 0  0.9 0.5 0  1 0.5 0  0 0.6 0  0.1 0.6 0  0.2 0.6 0  0.3 0.6 0  0.4 0.6 0  0.5 0.6 0  0.6 0.6 0  0.7 0.6 0  0.8 0.6 0  0.9 0.6 0  1 0.6 0  0 0.7 0  0.1 0.7 0  0.2 0.7 0  0.3 0.7 0  0.4 0.7 0  0.5 0.7 0  0.6 0.7 0  0.7 0.7 0  0.8 0.7 0  0.9 0.7 0  1 0.7 0  0 0.8 0  0.1 0.8 0  0.2 0.8 0  0.3 0.8 0  0.4 0.8 0  0.5 0.8 0  0.6 0.8 0  0.7 0.8 0  0.8 0.8 0  0.9 0.8 0  1 0.8 0  0 0.9 0  0.1 0.9 0  0.2 0.9 0  0.3 0.9 0  0.4 0.9 0  0.5 0.9 0  0.6 0.9 0  0.7 0.9 0  0.8 0.9 0  0.9 0.9 0  1 0.9 0  0 1 0  0.1 1 0  0.2 1 0  0.3 1 0  0.4 1 0  0.5 1 0  0.6 1 0  0.7 1 0  0.8 1 0  0.9 1 0  1 1 0  </DataArray>
</Points>
<Cells>
<DataArray  type="UInt32"  Name="connectivity"  format="ascii">0 1 12  0 11 12  1 2 13  1 12 13  2 3 14  2 13 14  3 4 15  3 14 15  4 5 16  4 15 16  5 6 17  5 16 17  6 7 18  6 17 18  7 8 19  7 18 19  8 9 20  8 19 20  9 10 21  9 20 21  11 12 23  11 22 23  12 13 24  12 23 24  13 14 25  13 24 25  14 15 26  14 25 26  15 16 27  15 26 27  16 17 28  16 27 28  17 18 29  17 28 29  18 19 30  18 29 30  19 20 31  19 30 31  20 21 32  20 31 32  22 23 34  22 33 34  23 24 35  23 34 35  24 25 36  24 35 36  25 26 37  25 36 37  26 27 38  26 37 38  27 28 39  27 38 39  28 29 40  28 39 40  29 30 41  29 40 41  30 31 42  30 41 42  31 32 43  31 42 43  33 34 45  33 44 45  34 35 46  34 45 46  35 36 47  35 46 47  36 37 48  36 47 48  37 38 49  37 48 49  38 39 50  38 49 50  39 40 51  39 50 51  40 41 52  40 51 52  41 42 53  41 52 53  42 43 54  42 53 54  44 45 56  44 55 56  45 46 57  45 56 57  46 47 58  46 57 58  47 48 59  47 58 59  48 49 60  48 59 60  49 50 61  49 60 61  50 51 62  50 61 62  51 52 63  51 62 63  52 53 64  52 63 64  53 54 65  53 64 65  55 56 67  55 66 67  56 57 68  56 67 68  57 58 69  57 68 69  58 59 70  58 69 70  59 60 71  59 70 71  60 61 72  60 71 72  61 62 73  61 72 73  62 63 74  62 73 74  63 64 75  63 74 75  64 65 76  64 75 76  66 67 78  66 77 78  67 68 79  67 78 79  68 69 80  68 79 80  69 70 81  69 80 81  70 71 82  70 81 82  71 72 83  71 82 83  72 73 84  72 83 84  73 74 85  73 84 85  74 75 86  74 85 86  75 76 87  75 86 87  77 78 89  77 88 89  78 79 90  78 89 90  79 80 91  79 90 91  80 81 92  80 91 92  81 82 93  81 92 93  82 83 94  82 93 94  83 84 95  83 94 95  84 85 96  84 95 96  85 86 97  85 96 97  86 87 98  86 97 98  88 89 100  88 99 100  89 90 101  89 100 101  90 91 102  90 101 102  91 92 103  91 102 103  92 93 104  92 103 104  93 94 105  93 104 105  94 95 106  94 105 106  95 96 107  95 106 107  96 97 108  96 107 108  97 98 109  97 108 109  99 100 111  99 110 111  100 101 112  100 111 112  101 102 113  101 112 113  102 103 114  102 113 114  103 104 115  103 114 115  104 105 116  104 115 116  105 106 117  105 116 117  106 107 118  106 117 118  107 108 119  107 118 119  108 109 120  108 119 120  </DataArray>
<DataArray  type="UInt32"  Name="offsets"  format="ascii">3 6 9 12 15 18 21 24 27 30 33 36 39 42 45 48 51 54 57 60 63 66 69 72 75 78 81 84 87 90 93 96 99 102 105 108 111 114 117 120 123 126 129 132 135 138 141 144 147 150 153 156 159 162 165 168 171 174 177 180 183 186 189 192 195 198 201 204 207 210 213 216 219 222 225 228 231 234 237 240 243 246 249 252 255 258 261 264 267 270 273 276 279 282 285 288 291 294 297 300 303 306 309 312 315 318 321 324 327 330 333 336 339 342 345 348 351 354 357 360 363 366 369 372 375 378 381 384 387 390 393 396 399 402 405 408 411 414 417 420 423 426 429 432 435 438 441 444 447 450 453 456 459 462 465 468 471 474 477 480 483 486 489 492 495 498 501 504 507 510 513 516 519 522 525 528 531 534 537 540 543 546 549 552 555 558 561 564 567 570 573 576 579 582 585 588 591 594 597 600 </DataArray>
<DataArray  type="UInt8"  Name="types"  format="ascii">5 5 5 5 5 5 5 5 5 5 5 5 5 5 5 5 5 5 5 5 5 5 5 5 5 5 5 5 5 5 5 5 5 5 5 5 5 5 5 5 5 5 5 5 5 5 5 5 5 5 5 5 5 5 5 5 5 5 5 5 5 5 5 5 5 5 5 5 5 5 5 5 5 5 5 5 5 5 5 5 5 5 5 5 5 5 5 5 5 5 5 5 5 5 5 5 5 5 5 5 5 5 5 5 5 5 5 5 5 5 5 5 5 5 5 5 5 5 5 5 5 5 5 5 5 5 5 5 5 5 5 5 5 5 5 5 5 5 5 5 5 5 5 5 5 5 5 5 5 5 5 5 5 5 5 5 5 5 5 5 5 5 5 5 5 5 5 5 5 5 5 5 5 5 5 5 5 5 5 5 5 5 5 5 5 5 5 5 5 5 5 5 5 5 5 5 5 5 5 5 </DataArray>
</Cells>
<PointData  Vectors="f_22"> 
<DataArray  type="Float64"  Name="f_22"  NumberOfComponents="3" format="ascii">0.0000000000000000e+00 0.0000000000000000e+00 0.0000000000000000e+00  0.0000000000000000e+00 0.0000000000000000e+00 0.0000000000000000e+00  0.0000000000000000e+00 0.0000000000000000e+00 0.0000000000000000e+00  0.0000000000000000e+00 0.0000000000000000e+00 0.0000000000000000e+00  0.0000000000000000e+00 0.0000000000000000e+00 0.0000000000000000e+00  0.0000000000000000e+00 0.0000000000000000e+00 0.0000000000000000e+00  0.0000000000000000e+00 0.0000000000000000e+00 0.0000000000000000e+00  0.0000000000000000e+00 0.0000000000000000e+00 0.0000000000000000e+00  0.0000000000000000e+00 0.0000000000000000e+00 0.0000000000000000e+00  0.0000000000000000e+00 0.0000000000000000e+00 0.0000000000000000e+00  0.0000000000000000e+00 0.0000000000000000e+00 0.0000000000000000e+00  0.0000000000000000e+00 0.0000000000000000e+00 0.0000000000000000e+00  8.4350452464546349e-03 -9.9273708870968574e-03 0.0000000000000000e+00  4.3794969320201202e-02 -2.5923615316990434e-02 0.0000000000000000e+00  9.6214591111981690e-02 -3.2776426121145071e-02 0.0000000000000000e+00  1.5510063949165678e-01 -3.5203846768801526e-02 0.0000000000000000e+00  2.1660875799067666e-01 -3.6716226614927461e-02 0.0000000000000000e+00  2.8046238480606372e-01 -3.8823191120659753e-02 0.0000000000000000e+00  3.4792485501704362e-01 -4.1925397419544111e-02 0.0000000000000000e+00  4.2022993823969662e-01 -4.5433670659441969e-02 0.0000000000000000e+00  4.9593269326031408e-01 -4.8634581273772855e-02 0.0000000000000000e+00  5.6572721483804367e-01 -4.9348163842952819e-02 0.0000000000000000e+00  0.0000000000000000e+00 0.0000000000000000e+00 0.0000000000000000e+00  1.5883009386266279e-02 -3.7982086820693907e-02 0.0000000000000000e+00  6.3154617485573050e-02 -7.9338208516809047e-02 0.0000000000000000e+00  1.2865848574932645e-01 -9.7465543702006149e-02 0.0000000000000000e+00  2.0097854475246812e-01 -1.0359336304088802e-01 0.0000000000000000e+00  2.7553421373673059e-01 -1.0672144259708431e-01 0.0000000000000000e+00  3.5161988355026497e-01 -1.1135304459625540e-01 0.0000000000000000e+00  4.3075671079451405e-01 -1.1961728117459207e-01 0.0000000000000000e+00  5.1623318734581614e-01 -1.3188713612644004e-01 0.0000000000000000e+00  6.0818336481437119e-01 -1.4450679572553288e-01 0.0000000000000000e+00  7.0084608582925578e-01 -1.4662679219507774e-01 0.0000000000000000e+00  0.0000000000000000e+00 0.0000000000000000e+00 0.0000000000000000e+00  1.6506605682543762e-02 -7.4067192894707937e-02 0.0000000000000000e+00  6.5666204410895879e-02 -1.4283618748772955e-01 0.0000000000000000e+00  1.3281145511540993e-01 -1.7268015223477853e-01 0.0000000000000000e+00  2.0593065138319580e-01 -1.8254418817233672e-01 0.0000000000000000e+00  2.7989981816974141e-01 -1.8674312178096952e-01 0.0000000000000000e+00  3.5345677778293333e-01 -1.9247971229131391e-01 0.0000000000000000e+00  4.2853328802679030e-01 -2.0326671476423261e-01 0.0000000000000000e+00  5.0775732683158625e-01 -2.1879393676172029e-01 0.0000000000000000e+00  6.0485132349335180e-01 -2.3663970067193327e-01 0.0000000000000000e+00  7.0315098275744614e-01 -2.6014793730082680e-01 0.0000000000000000e+00  0.0000000000000000e+00 0.0000000000000000e+00 0.0000000000000000e+00  1.7362976709235145e-02 -1.0603334663727781e-01 0.0000000000000000e+00  6.6760601806915690e-02 -1.9787532292861817e-01 0.0000000000000000e+00  1.3377640466821128e-01 -2.3540487311973018e-01 0.0000000000000000e+00  2.0652743078597680e-01 -2.4589082642411988e-01 0.0000000000000000e+00  2.7846535951591328e-01 -2.4728436381348998e-01 0.0000000000000000e+00  3.4549223228049331e-01 -2.4989694744975441e-01 0.0000000000000000e+00  4.0804875120474926e-01 -2.6431123433896597e-01 0.0000000000000000e+00  4.7089669485694080e-01 -2.9742886520042672e-01 0.0000000000000000e+00  5.2763775156086168e-01 -3.4725384041639362e-01 0.0000000000000000e+00  6.8767993196492672e-01 -4.2231856488428526e-01 0.0000000000000000e+00  0.0000000000000000e+00 0.0000000000000000e+00 0.0000000000000000e+00  1.7337077353386639e-02 -1.4720445736008106e-01 0.0000000000000000e+00  6.5624531039986209e-02 -2.7076181570067254e-01 0.0000000000000000e+00  1.3258292573559965e-01 -3.2552378051867525e-01 0.0000000000000000e+00  2.0725684448925799e-01 -3.4241075198424098e-01 0.0000000000000000e+00  2.7886524208041041e-01 -3.3946804456350954e-01 0.0000000000000000e+00  3.3709846584337699e-01 -3.3196940028931538e-01 0.0000000000000000e+00  3.8075078203679824e-01 -3.3670246239941126e-01 0.0000000000000000e+00  4.1845280565035425e-01 -3.6150477838783152e-01 0.0000000000000000e+00  4.3068821827761888e-01 -3.7669690656158950e-01 0.0000000000000000e+00  0.0000000000000000e+00 0.0000000000000000e+00 0.0000000000000000e+00  0.0000000000000000e+00 0.0000000000000000e+00 0.0000000000000000e+00  1.8098225908819737e-02 -1.7439809799269734e-01 0.0000000000000000e+00  6.5092659432629263e-02 -3.1021771839599183e-01 0.0000000000000000e+00  1.3071698885830671e-01 -3.6563672506082784e-01 0.0000000000000000e+00  2.0662366153547623e-01 -3.7850247398953274e-01 0.0000000000000000e+00  2.7687331274478705e-01 -3.5922114343403233e-01 0.0000000000000000e+00  3.1762619556713168e-01 -3.2305836903203755e-01 0.0000000000000000e+00  3.2866331733662274e-01 -3.1587137471172150e-01 0.0000000000000000e+00  3.3669616717580475e-01 -3.6076347098129558e-01 0.0000000000000000e+00  3.5662728472967481e-01 -4.0831522992866592e-01 0.0000000000000000e+00  0.0000000000000000e+00 0.0000000000000000e+00 0.0000000000000000e+00  0.0000000000000000e+00 0.0000000000000000e+00 0.0000000000000000e+00  1.6349524946557933e-02 -2.1619855807018309e-01 0.0000000000000000e+00  5.4147068065249888e-02 -3.8913851233245572e-01 0.0000000000000000e+00  1.1391177665840815e-01 -4.8712958552961816e-01 0.0000000000000000e+00  1.9236742119838460e-01 -5.3085473003644923e-01 0.0000000000000000e+00  2.5239745401413055e-01 -4.8333088271905572e-01 0.0000000000000000e+00  2.5522525842590538e-01 -4.0057119105851513e-01 0.0000000000000000e+00  2.3595100349445064e-01 -3.8822538236921234e-01 0.0000000000000000e+00  2.3079087910660545e-01 -4.1370157932372253e-01 0.0000000000000000e+00  2.2546256267824086e-01 -4.2831418681245292e-01 0.0000000000000000e+00  0.0000000000000000e+00 0.0000000000000000e+00 0.0000000000000000e+00  0.0000000000000000e+00 0.0000000000000000e+00 0.0000000000000000e+00  1.4354462786368016e-02 -2.3519778808235425e-01 0.0000000000000000e+00  4.7989799152002521e-02 -4.0681321820506117e-01 0.0000000000000000e+00  1.0284523766778175e-01 -4.9418073830392023e-01 0.0000000000000000e+00  1.6488786628500113e-01 -5.0426215153704868e-01 0.0000000000000000e+00  1.9113195997041896e-01 -3.5854967859185150e-01 0.0000000000000000e+00  1.6124211294786578e-01 -2.2854877137480598e-01 0.0000000000000000e+00  1.2315403153653995e-01 -2.2137559027744047e-01 0.0000000000000000e+00  7.9279159380717237e-02 -2.9659861333402382e-01 0.0000000000000000e+00  3.9508501369643796e-03 -3.5041305827831215e-01 0.0000000000000000e+00  0.0000000000000000e+00 0.0000000000000000e+00 0.0000000000000000e+00  0.0000000000000000e+00 0.0000000000000000e+00 0.0000000000000000e+00  1.1316868316471655e-02 -2.6567541771866338e-01 0.0000000000000000e+00  3.0687824043498714e-02 -4.6265527315317362e-01 0.0000000000000000e+00  5.3637015229069641e-02 -6.0282802917337441e-01 0.0000000000000000e+00  7.8672444266153108e-02 -6.8694542660031199e-01 0.0000000000000000e+00  8.5989784622791068e-02 -5.3578616868665951e-01 0.0000000000000000e+00  2.9169292770695361e-02 -4.3640069954756633e-01 0.0000000000000000e+00  1.8073992046543343e-02 -4.5848113523113965e-01 0.0000000000000000e+00  -1.7909311120933146e-02 -4.5169136939289561e-01 0.0000000000000000e+00  -1.3344908953919538e-01 -3.2868962387661593e-01 0.0000000000000000e+00  0.0000000000000000e+00 0.0000000000000000e+00 0.0000000000000000e+00  0.0000000000000000e+00 0.0000000000000000e+00 0.0000000000000000e+00  8.3566138594499545e-03 -2.7519035235417194e-01 0.0000000000000000e+00  2.0094998264533794e-02 -4.5776165303736382e-01 0.0000000000000000e+00  3.1303859443454686e-02 -5.7657338196111541e-01 0.0000000000000000e+00  3.4852395371221000e-02 -6.0142142010095156e-01 0.0000000000000000e+00  0.0000000000000000e+00 0.0000000000000000e+00 0.0000000000000000e+00  0.0000000000000000e+00 0.0000000000000000e+00 0.0000000000000000e+00  0.0000000000000000e+00 0.0000000000000000e+00 0.0000000000000000e+00  0.0000000000000000e+00 0.0000000000000000e+00 0.0000000000000000e+00  0.0000000000000000e+00 0.0000000000000000e+00 0.0000000000000000e+00  0.0000000000000000e+00 0.0000000000000000e+00 0.0000000000000000e+00  </DataArray> 
</PointData> 
</Piece>
</UnstructuredGrid>
</VTKFile>