<?xml version="1.0"?>
<VTKFile type="UnstructuredGrid"  version="0.1"  >
<UnstructuredGrid>
<Piece  NumberOfPoints="121" NumberOfCells="200">
<Points>
<DataArray  type="Float64"  NumberOfComponents="3"  format="ascii">0 0 0  0.1 0 0  0.2 0 0  0.3 0 0  0.4 0 0  0.5 0 0  0.6 0 0  0.7 0 0  0.8 0 0  0.9 0 0  1 0 0  0 0.1 0  0.1 0.1 0  0.2 0.1 0  0.3 0.1 0  0.4 0.1 0  0.5 0.1 0  0.6 0.1 0  0.7 0.1 0  0.8 0.1 0  0.9 0.1 0  1 0.1 0  0 0.2 0  0.1 0.2 0  0.2 0.2 0  0.3 0.2 0  0.4 0.2 0  0.5 0.2 0  0.6 0.2 0  0.7 0.2 0  0.8 0.2 0  0.9 0.2 0  1 0.2 0  0 0.3 0  0.1 0.3 0  0.2 0.3 0  0.3 0.3 0  0.4 0.3 0  0.5 0.3 0  0.6 0.3 0  0.7 0.3 0  0.8 0.3 0  0.9 0.3 0  1 0.3 0  0 0.4 0  0.1 0.4 0  0.2 0.4 0  0.3 0.4 0  0.4 0.4 0  0.5 0.4 0  0.6 0.4 0  0.7 0.4 0  0.8 0.4 0  0.9 0.4 0  1 0.4 0  0 0.5 0  0.1 0.5 0  0.2 0.5 0  0.3 0.5 0  0.4 0.5 0  0.5 0.5 0  0.6 0.5 0  0.7 0.5 0  0.8 0.5 0  0.9 0.5 0  1 0.5 0  0 0.6 0  0.1 0.6 0  0.2 0.6 0  0.3 0.6 0  0.4 0.6 0  0.5 0.6 0  0.6 0.6 0  0.7 0.6 0  0.8 0.6 0  0.9 0.6 0  1 0.6 0  0 0.7 0  0.1 0.7 0  0.2 0.7 0  0.3 0.7 0  0.4 0.7 0  0.5 0.7 0  0.6 0.7 0  0.7 0.7 0  0.8 0.7 0  0.9 0.7 0  1 0.7 0  0 0.8 0  0.1 0.8 0  0.2 0.8 0  0.3 0.8 0  0.4 0.8 0  0.5 0.8 0  0.6 0.8 0  0.7 0.8 0  0.8 0.8 0  0.9 0.8 0  1 0.8 0  0 0.9 0  0.1 0.9 0  0.2 0.9 0  0.3 0.9 0  0.4 0.9 0  0.5 0.9 0  0.6 0.9 0  0.7 0.9 0  0.8 0.9 0  0.9 0.9 0  1 0.9 0  0 1 0  0.1 1 0  0.2 1 0  0.3 1 0  0.4 1 0  0.5 1 0  0.6 1 0  0.7 1 0  0.8 1 0  0.9 1 0  1 1 0  </DataArray>
</Points>
<Cells>
<DataArray  type="UInt32"  Name="connectivity"  format="ascii">0 1 12  0 11 12  1 2 13  1 12 13  2 3 14  2 13 14  3 4 15  3 14 15  4 5 16  4 15 16  5 6 17  5 16 17  6 7 18  6 17 18  7 8 19  7 18 19  8 9 20  8 19 20  9 10 21  9 20 21  11 12 23  11 22 23  12 13 24  12 23 24  13 14 25  13 24 25  14 15 26  14 25 26  15 16 27  15 26 27  16 17 28  16 27 28  17 18 29  17 28 29  18 19 30  18 29 30  19 20 31  19 30 31  20 21 32  20 31 32  22 23 34  22 33 34  23 24 35  23 34 35  24 25 36  24 35 36  25 26 37  25 36 37  26 27 38  26 37 38  27 28 39  27 38 39  28 29 40  28 39 40  29 30 41  29 40 41  30 31 42  30 41 42  31 32 43  31 42 43  33 34 45  33 44 45  34 35 46  34 45 46  35 36 47  35 46 47  36 37 48  36 47 48  37 38 49  37 48 49  38 39 50  38 49 50  39 40 51  39 50 51  40 41 52  40 51 52  41 42 53  41 52 53  42 43 54  42 53 54  44 45 56  44 55 56  45 46 57  45 56 57  46 47 58  46 57 58  47 48 59  47 58 59  48 49 60  48 59 60  49 50 61  49 60 61  50 51 62  50 61 62  51 52 63  51 62 63  52 53 64  52 63 64  53 54 65  53 64 65  55 56 67  55 66 67  56 57 68  56 67 68  57 58 69  57 68 69  58 59 70  58 69 70  59 60 71  59 70 71  60 61 72  60 71 72  61 62 73  61 72 73  62 63 74  62 73 74  63 64 75  63 74 75  64 65 76  64 75 76  66 67 78  66 77 78  67 68 79  67 78 79  68 69 80  68 79 80  69 70 81  69 80 81  70 71 82  70 81 82  71 72 83  71 82 83  72 73 84  72 83 84  73 74 85  73 84 85  74 75 86  74 85 86  75 76 87  75 86 87  77 78 89  77 88 89  78 79 90  78 89 90  79 80 91  79 90 91  80 81 92  80 91 92  81 82 93  81 92 93  82 83 94  82 93 94  83 84 95  83 94 95  84 85 96  84 95 96  85 86 97  85 96 97  86 87 98  86 97 98  88 89 100  88 99 100  89 90 101  89 100 101  90 91 102  90 101 102  91 92 103  91 102 103  92 93 104  92 103 104  93 94 105  93 104 105  94 95 106  94 105 106  95 96 107  95 106 107  96 97 108  96 107 108  97 98 109  97 108 109  99 100 111  99 110 111  100 101 112  100 111 112  101 102 113  101 112 113  102 103 114  102 113 114  103 104 115  103 114 115  104 105 116  104 115 116  105 106 117  105 116 117  106 107 118  106 117 118  107 108 119  107 118 119  108 109 120  108 119 120  </DataArray>
<DataArray  type="UInt32"  Name="offsets"  format="ascii">3 6 9 12 15 18 21 24 27 30 33 36 39 42 45 48 51 54 57 60 63 66 69 72 75 78 81 84 87 90 93 96 99 102 105 108 111 114 117 120 123 126 129 132 135 138 141 144 147 150 153 156 159 162 165 168 171 174 177 180 183 186 189 192 195 198 201 204 207 210 213 216 219 222 225 228 231 234 237 240 243 246 249 252 255 258 261 264 267 270 273 276 279 282 285 288 291 294 297 300 303 306 309 312 315 318 321 324 327 330 333 336 339 342 345 348 351 354 357 360 363 366 369 372 375 378 381 384 387 390 393 396 399 402 405 408 411 414 417 420 423 426 429 432 435 438 441 444 447 450 453 456 459 462 465 468 471 474 477 480 483 486 489 492 495 498 501 504 507 510 513 516 519 522 525 528 531 534 537 540 543 546 549 552 555 558 561 564 567 570 573 576 579 582 585 588 591 594 597 600 </DataArray>
<DataArray  type="UInt8"  Name="types"  format="ascii">5 5 5 5 5 5 5 5 5 5 5 5 5 5 5 5 5 5 5 5 5 5 5 5 5 5 5 5 5 5 5 5 5 5 5 5 5 5 5 5 5 5 5 5 5 5 5 5 5 5 5 5 5 5 5 5 5 5 5 5 5 5 5 5 5 5 5 5 5 5 5 5 5 5 5 5 5 5 5 5 5 5 5 5 5 5 5 5 5 5 5 5 5 5 5 5 5 5 5 5 5 5 5 5 5 5 5 5 5 5 5 5 5 5 5 5 5 5 5 5 5 5 5 5 5 5 5 5 5 5 5 5 5 5 5 5 5 5 5 5 5 5 5 5 5 5 5 5 5 5 5 5 5 5 5 5 5 5 5 5 5 5 5 5 5 5 5 5 5 5 5 5 5 5 5 5 5 5 5 5 5 5 5 5 5 5 5 5 5 5 5 5 5 5 5 5 5 5 5 5 </DataArray>
</Cells>
<PointData  Vectors="f_47"> 
<DataArray  type="Float64"  Name="f_47"  NumberOfComponents="3" format="ascii">0.0000000000000000e+00 0.0000000000000000e+00 0.0000000000000000e+00  0.0000000000000000e+00 0.0000000000000000e+00 0.0000000000000000e+00  0.0000000000000000e+00 0.0000000000000000e+00 0.0000000000000000e+00  0.0000000000000000e+00 0.0000000000000000e+00 0.0000000000000000e+00  0.0000000000000000e+00 0.0000000000000000e+00 0.0000000000000000e+00  0.0000000000000000e+00 0.0000000000000000e+00 0.0000000000000000e+00  0.0000000000000000e+00 0.0000000000000000e+00 0.0000000000000000e+00  0.0000000000000000e+00 0.0000000000000000e+00 0.0000000000000000e+00  0.0000000000000000e+00 0.0000000000000000e+00 0.0000000000000000e+00  0.0000000000000000e+00 0.0000000000000000e+00 0.0000000000000000e+00  0.0000000000000000e+00 0.0000000000000000e+00 0.0000000000000000e+00  0.0000000000000000e+00 0.0000000000000000e+00 0.0000000000000000e+00  8.2532660377459960e-02 -8.5331026509718702e-02 0.0000000000000000e+00  2.0208103897534474e-01 -9.1901508987077982e-02 0.0000000000000000e+00  3.2620032737864113e-01 -9.2828369618047038e-02 0.0000000000000000e+00  4.5151291838262236e-01 -9.3584777007661490e-02 0.0000000000000000e+00  5.7750024984661441e-01 -9.3312556797480864e-02 0.0000000000000000e+00  7.0216445860670007e-01 -9.0543024282307524e-02 0.0000000000000000e+00  8.2147029432717145e-01 -8.3070329550947855e-02 0.0000000000000000e+00  9.2712971593135463e-01 -6.9602199793322661e-02 0.0000000000000000e+00  1.0092648928278176e+00 -4.9945421527007934e-02 0.0000000000000000e+00  1.0459772336779720e+00 -2.4478474929174619e-02 0.0000000000000000e+00  0.0000000000000000e+00 0.0000000000000000e+00 0.0000000000000000e+00  8.4371948155727752e-02 -2.0568581095882135e-01 0.0000000000000000e+00  2.0961676098592141e-01 -2.2097051968555528e-01 0.0000000000000000e+00  3.4054928828293102e-01 -2.2406542565216075e-01 0.0000000000000000e+00  4.7381323834921885e-01 -2.2642475124664543e-01 0.0000000000000000e+00  6.0930948740014579e-01 -2.2690336386311172e-01 0.0000000000000000e+00  7.4540949259122991e-01 -2.2256009722512532e-01 0.0000000000000000e+00  8.7946969093171601e-01 -2.0889454761880816e-01 0.0000000000000000e+00  1.0083958674520281e+00 -1.7887836495079776e-01 0.0000000000000000e+00  1.1054335569897034e+00 -1.3197725757245451e-01 0.0000000000000000e+00  1.1728172506317529e+00 -6.8704503790401383e-02 0.0000000000000000e+00  0.0000000000000000e+00 0.0000000000000000e+00 0.0000000000000000e+00  8.2880381138252635e-02 -3.2579955662053062e-01 0.0000000000000000e+00  2.0700459214668893e-01 -3.5038862538961019e-01 0.0000000000000000e+00  3.3761074588546991e-01 -3.5652701184217661e-01 0.0000000000000000e+00  4.7211241360099737e-01 -3.6204567150148137e-01 0.0000000000000000e+00  6.1097245182602267e-01 -3.6560361428832905e-01 0.0000000000000000e+00  7.5213552913352666e-01 -3.6290542628810296e-01 0.0000000000000000e+00  8.8903516013877315e-01 -3.4599742039564912e-01 0.0000000000000000e+00  1.0297560458501671e+00 -3.0705271880915419e-01 0.0000000000000000e+00  1.2046154410282668e+00 -2.3031189957835224e-01 0.0000000000000000e+00  1.2759037051214699e+00 -1.3136882776496261e-01 0.0000000000000000e+00  0.0000000000000000e+00 0.0000000000000000e+00 0.0000000000000000e+00  8.0733398991995470e-02 -4.4299826623446076e-01 0.0000000000000000e+00  2.0185273315897403e-01 -4.7704380262388529e-01 0.0000000000000000e+00  3.3063951291547644e-01 -4.8681251947703125e-01 0.0000000000000000e+00  4.6541011560073414e-01 -4.9593737502810958e-01 0.0000000000000000e+00  6.0705257159266091e-01 -5.0223861542361492e-01 0.0000000000000000e+00  7.5101448604151477e-01 -5.0014302527348609e-01 0.0000000000000000e+00  8.7620550676129150e-01 -4.8216123233070018e-01 0.0000000000000000e+00  9.4939536807143710e-01 -4.3483461055377004e-01 0.0000000000000000e+00  1.0825140790640646e+00 -3.6739785229408289e-01 0.0000000000000000e+00  1.5187512309233804e+00 -2.7914390895091373e-01 0.0000000000000000e+00  0.0000000000000000e+00 0.0000000000000000e+00 0.0000000000000000e+00  7.6080112000669442e-02 -5.5774039103687967e-01 0.0000000000000000e+00  1.9086260706425481e-01 -6.0522112167238007e-01 0.0000000000000000e+00  3.1457014279838008e-01 -6.2771447205358277e-01 0.0000000000000000e+00  4.4596612091863874e-01 -6.5553383777366991e-01 0.0000000000000000e+00  5.8603750388801179e-01 -6.9036278381175809e-01 0.0000000000000000e+00  7.3117234765030548e-01 -7.2856835154264410e-01 0.0000000000000000e+00  8.4998462087996252e-01 -7.4475072885623073e-01 0.0000000000000000e+00  8.5882694722871944e-01 -6.8135616355114004e-01 0.0000000000000000e+00  6.2317198033874066e-01 -4.5916254812677942e-01 0.0000000000000000e+00  0.0000000000000000e+00 0.0000000000000000e+00 0.0000000000000000e+00  0.0000000000000000e+00 0.0000000000000000e+00 0.0000000000000000e+00  7.2227662956898572e-02 -6.5689971498996402e-01 0.0000000000000000e+00  1.8148794851170516e-01 -7.0541739207868692e-01 0.0000000000000000e+00  3.0376336269001103e-01 -7.1174530180542350e-01 0.0000000000000000e+00  4.3692751891920223e-01 -7.0417982491376885e-01 0.0000000000000000e+00  5.8427247494173729e-01 -6.7924532826179929e-01 0.0000000000000000e+00  7.4137743284864799e-01 -6.1107044729704274e-01 0.0000000000000000e+00  8.4301357813620847e-01 -4.4452008155507361e-01 0.0000000000000000e+00  7.5098122446092985e-01 -1.5240188434178850e-01 0.0000000000000000e+00  3.8883526950779401e-01 3.3313176437055614e-02 0.0000000000000000e+00  0.0000000000000000e+00 0.0000000000000000e+00 0.0000000000000000e+00  0.0000000000000000e+00 0.0000000000000000e+00 0.0000000000000000e+00  5.7429205746553011e-02 -7.6327490424246802e-01 0.0000000000000000e+00  1.4393069162619779e-01 -8.4702791533573130e-01 0.0000000000000000e+00  2.4215678912357166e-01 -9.3110149652102192e-01 0.0000000000000000e+00  3.6178783705455270e-01 -1.0563374631283373e+00 0.0000000000000000e+00  4.8906314940471324e-01 -1.2072433536564149e+00 0.0000000000000000e+00  6.1230199504589855e-01 -1.4136064743514476e+00 0.0000000000000000e+00  7.6846184982099630e-01 -1.6947786764802522e+00 0.0000000000000000e+00  8.1875331699282727e-01 -1.7692168056302700e+00 0.0000000000000000e+00  6.1623993940983113e-01 -1.1300754321463586e+00 0.0000000000000000e+00  0.0000000000000000e+00 0.0000000000000000e+00 0.0000000000000000e+00  0.0000000000000000e+00 0.0000000000000000e+00 0.0000000000000000e+00  4.9331488833523215e-02 -8.1373379372689425e-01 0.0000000000000000e+00  1.2294253205106667e-01 -8.7904488309599893e-01 0.0000000000000000e+00  2.4028191055270900e-01 -8.8695688709870024e-01 0.0000000000000000e+00  4.0090826639032973e-01 -8.0710206739812207e-01 0.0000000000000000e+00  5.3201024206519798e-01 -6.0026205563028268e-01 0.0000000000000000e+00  6.6205088718917049e-01 -4.3023477705556651e-01 0.0000000000000000e+00  8.1759646498013494e-01 -2.4262097995116122e-01 0.0000000000000000e+00  8.9887966774966754e-01 -8.1405107506732841e-02 0.0000000000000000e+00  3.4573809545015427e-01 -4.6314219198378120e-01 0.0000000000000000e+00  0.0000000000000000e+00 0.0000000000000000e+00 0.0000000000000000e+00  0.0000000000000000e+00 0.0000000000000000e+00 0.0000000000000000e+00  2.1141639206914597e-02 -8.8287431280741568e-01 0.0000000000000000e+00  4.3797633321327988e-02 -1.0036607460425526e+00 0.0000000000000000e+00  7.5720610728053847e-02 -1.1688458733294289e+00 0.0000000000000000e+00  1.1713962156634289e-01 -1.4945758360311925e+00 0.0000000000000000e+00  2.1495930107327563e-01 -1.7112190768206879e+00 0.0000000000000000e+00  1.4712817313728371e-01 -2.0364602616598315e+00 0.0000000000000000e+00  1.7911274278854306e-01 -2.5509495118020507e+00 0.0000000000000000e+00  3.6160592437583788e-01 -3.1008611978676508e+00 0.0000000000000000e+00  1.4308453302920143e+00 -3.2107041755250330e+00 0.0000000000000000e+00  0.0000000000000000e+00 0.0000000000000000e+00 0.0000000000000000e+00  0.0000000000000000e+00 0.0000000000000000e+00 0.0000000000000000e+00  5.9626802938854339e-03 -8.4981769138351837e-01 0.0000000000000000e+00  1.9384011822967256e-02 -9.4953197231896147e-01 0.0000000000000000e+00  3.7552483049983459e-02 -1.0631846477720803e+00 0.0000000000000000e+00  5.3298661338998778e-02 -1.1921971376563436e+00 0.0000000000000000e+00  0.0000000000000000e+00 0.0000000000000000e+00 0.0000000000000000e+00  0.0000000000000000e+00 0.0000000000000000e+00 0.0000000000000000e+00  0.0000000000000000e+00 0.0000000000000000e+00 0.0000000000000000e+00  0.0000000000000000e+00 0.0000000000000000e+00 0.0000000000000000e+00  0.0000000000000000e+00 0.0000000000000000e+00 0.0000000000000000e+00  0.0000000000000000e+00 0.0000000000000000e+00 0.0000000000000000e+00  </DataArray> 
</PointData> 
</Piece>
</UnstructuredGrid>
</VTKFile>