<?xml version="1.0"?>
<VTKFile type="UnstructuredGrid"  version="0.1"  >
<UnstructuredGrid>
<Piece  NumberOfPoints="121" NumberOfCells="200">
<Points>
<DataArray  type="Float64"  NumberOfComponents="3"  format="ascii">0 0 0  0.1 0 0  0.2 0 0  0.3 0 0  0.4 0 0  0.5 0 0  0.6 0 0  0.7 0 0  0.8 0 0  0.9 0 0  1 0 0  0 0.1 0  0.1 0.1 0  0.2 0.1 0  0.3 0.1 0  0.4 0.1 0  0.5 0.1 0  0.6 0.1 0  0.7 0.1 0  0.8 0.1 0  0.9 0.1 0  1 0.1 0  0 0.2 0  0.1 0.2 0  0.2 0.2 0  0.3 0.2 0  0.4 0.2 0  0.5 0.2 0  0.6 0.2 0  0.7 0.2 0  0.8 0.2 0  0.9 0.2 0  1 0.2 0  0 0.3 0  0.1 0.3 0  0.2 0.3 0  0.3 0.3 0  0.4 0.3 0  0.5 0.3 0  0.6 0.3 0  0.7 0.3 0  0.8 0.3 0  0.9 0.3 0  1 0.3 0  0 0.4 0  0.1 0.4 0  0.2 0.4 0  0.3 0.4 0  0.4 0.4 0  0.5 0.4 0  0.6 0.4 0  0.7 0.4 0  0.8 0.4 0  0.9 0.4 0  1 0.4 0  0 0.5 0  0.1 0.5 0  0.2 0.5 0  0.3 0.5 0  0.4 0.5 0  0.5 0.5 0  0.6 0.5 0  0.7 0.5 0  0.8 0.5 0  0.9 0.5 0  1 0.5 0  0 0.6 0  0.1 0.6 0  0.2 0.6 0  0.3 0.6 0  0.4 0.6 0  0.5 0.6 0  0.6 0.6 0  0.7 0.6 0  0.8 0.6 0  0.9 0.6 0  1 0.6 0  0 0.7 0  0.1 0.7 0  0.2 0.7 0  0.3 0.7 0  0.4 0.7 0  0.5 0.7 0  0.6 0.7 0  0.7 0.7 0  0.8 0.7 0  0.9 0.7 0  1 0.7 0  0 0.8 0  0.1 0.8 0  0.2 0.8 0  0.3 0.8 0  0.4 0.8 0  0.5 0.8 0  0.6 0.8 0  0.7 0.8 0  0.8 0.8 0  0.9 0.8 0  1 0.8 0  0 0.9 0  0.1 0.9 0  0.2 0.9 0  0.3 0.9 0  0.4 0.9 0  0.5 0.9 0  0.6 0.9 0  0.7 0.9 0  0.8 0.9 0  0.9 0.9 0  1 0.9 0  0 1 0  0.1 1 0  0.2 1 0  0.3 1 0  0.4 1 0  0.5 1 0  0.6 1 0  0.7 1 0  0.8 1 0  0.9 1 0  1 1 0  </DataArray>
</Points>
<Cells>
<DataArray  type="UInt32"  Name="connectivity"  format="ascii">0 1 12  0 11 12  1 2 13  1 12 13  2 3 14  2 13 14  3 4 15  3 14 15  4 5 16  4 15 16  5 6 17  5 16 17  6 7 18  6 17 18  7 8 19  7 18 19  8 9 20  8 19 20  9 10 21  9 20 21  11 12 23  11 22 23  12 13 24  12 23 24  13 14 25  13 24 25  14 15 26  14 25 26  15 16 27  15 26 27  16 17 28  16 27 28  17 18 29  17 28 29  18 19 30  18 29 30  19 20 31  19 30 31  20 21 32  20 31 32  22 23 34  22 33 34  23 24 35  23 34 35  24 25 36  24 35 36  25 26 37  25 36 37  26 27 38  26 37 38  27 28 39  27 38 39  28 29 40  28 39 40  29 30 41  29 40 41  30 31 42  30 41 42  31 32 43  31 42 43  33 34 45  33 44 45  34 35 46  34 45 46  35 36 47  35 46 47  36 37 48  36 47 48  37 38 49  37 48 49  38 39 50  38 49 50  39 40 51  39 50 51  40 41 52  40 51 52  41 42 53  41 52 53  42 43 54  42 53 54  44 45 56  44 55 56  45 46 57  45 56 57  46 47 58  46 57 58  47 48 59  47 58 59  48 49 60  48 59 60  49 50 61  49 60 61  50 51 62  50 61 62  51 52 63  51 62 63  52 53 64  52 63 64  53 54 65  53 64 65  55 56 67  55 66 67  56 57 68  56 67 68  57 58 69  57 68 69  58 59 70  58 69 70  59 60 71  59 70 71  60 61 72  60 71 72  61 62 73  61 72 73  62 63 74  62 73 74  63 64 75  63 74 75  64 65 76  64 75 76  66 67 78  66 77 78  67 68 79  67 78 79  68 69 80  68 79 80  69 70 81  69 80 81  70 71 82  70 81 82  71 72 83  71 82 83  72 73 84  72 83 84  73 74 85  73 84 85  74 75 86  74 85 86  75 76 87  75 86 87  77 78 89  77 88 89  78 79 90  78 89 90  79 80 91  79 90 91  80 81 92  80 91 92  81 82 93  81 92 93  82 83 94  82 93 94  83 84 95  83 94 95  84 85 96  84 95 96  85 86 97  85 96 97  86 87 98  86 97 98  88 89 100  88 99 100  89 90 101  89 100 101  90 91 102  90 101 102  91 92 103  91 102 103  92 93 104  92 103 104  93 94 105  93 104 105  94 95 106  94 105 106  95 96 107  95 106 107  96 97 108  96 107 108  97 98 109  97 108 109  99 100 111  99 110 111  100 101 112  100 111 112  101 102 113  101 112 113  102 103 114  102 113 114  103 104 115  103 114 115  104 105 116  104 115 116  105 106 117  105 116 117  106 107 118  106 117 118  107 108 119  107 118 119  108 109 120  108 119 120  </DataArray>
<DataArray  type="UInt32"  Name="offsets"  format="ascii">3 6 9 12 15 18 21 24 27 30 33 36 39 42 45 48 51 54 57 60 63 66 69 72 75 78 81 84 87 90 93 96 99 102 105 108 111 114 117 120 123 126 129 132 135 138 141 144 147 150 153 156 159 162 165 168 171 174 177 180 183 186 189 192 195 198 201 204 207 210 213 216 219 222 225 228 231 234 237 240 243 246 249 252 255 258 261 264 267 270 273 276 279 282 285 288 291 294 297 300 303 306 309 312 315 318 321 324 327 330 333 336 339 342 345 348 351 354 357 360 363 366 369 372 375 378 381 384 387 390 393 396 399 402 405 408 411 414 417 420 423 426 429 432 435 438 441 444 447 450 453 456 459 462 465 468 471 474 477 480 483 486 489 492 495 498 501 504 507 510 513 516 519 522 525 528 531 534 537 540 543 546 549 552 555 558 561 564 567 570 573 576 579 582 585 588 591 594 597 600 </DataArray>
<DataArray  type="UInt8"  Name="types"  format="ascii">5 5 5 5 5 5 5 5 5 5 5 5 5 5 5 5 5 5 5 5 5 5 5 5 5 5 5 5 5 5 5 5 5 5 5 5 5 5 5 5 5 5 5 5 5 5 5 5 5 5 5 5 5 5 5 5 5 5 5 5 5 5 5 5 5 5 5 5 5 5 5 5 5 5 5 5 5 5 5 5 5 5 5 5 5 5 5 5 5 5 5 5 5 5 5 5 5 5 5 5 5 5 5 5 5 5 5 5 5 5 5 5 5 5 5 5 5 5 5 5 5 5 5 5 5 5 5 5 5 5 5 5 5 5 5 5 5 5 5 5 5 5 5 5 5 5 5 5 5 5 5 5 5 5 5 5 5 5 5 5 5 5 5 5 5 5 5 5 5 5 5 5 5 5 5 5 5 5 5 5 5 5 5 5 5 5 5 5 5 5 5 5 5 5 5 5 5 5 5 5 </DataArray>
</Cells>
<PointData  Vectors="f_47"> 
<DataArray  type="Float64"  Name="f_47"  NumberOfComponents="3" format="ascii">0.0000000000000000e+00 0.0000000000000000e+00 0.0000000000000000e+00  0.0000000000000000e+00 0.0000000000000000e+00 0.0000000000000000e+00  0.0000000000000000e+00 0.0000000000000000e+00 0.0000000000000000e+00  0.0000000000000000e+00 0.0000000000000000e+00 0.0000000000000000e+00  0.0000000000000000e+00 0.0000000000000000e+00 0.0000000000000000e+00  0.0000000000000000e+00 0.0000000000000000e+00 0.0000000000000000e+00  0.0000000000000000e+00 0.0000000000000000e+00 0.0000000000000000e+00  0.0000000000000000e+00 0.0000000000000000e+00 0.0000000000000000e+00  0.0000000000000000e+00 0.0000000000000000e+00 0.0000000000000000e+00  0.0000000000000000e+00 0.0000000000000000e+00 0.0000000000000000e+00  0.0000000000000000e+00 0.0000000000000000e+00 0.0000000000000000e+00  0.0000000000000000e+00 0.0000000000000000e+00 0.0000000000000000e+00  6.6345367313234926e-02 -9.0178852454722583e-02 0.0000000000000000e+00  2.4745657592469875e-01 -1.6698365643911064e-01 0.0000000000000000e+00  4.8382231344734983e-01 -2.0365065553210099e-01 0.0000000000000000e+00  7.4421804533988478e-01 -2.2829891412243558e-01 0.0000000000000000e+00  1.0397893602938333e+00 -2.6651369770834060e-01 0.0000000000000000e+00  1.4085031728856330e+00 -3.4782536825370475e-01 0.0000000000000000e+00  1.8155827072572275e+00 -4.5270488326999742e-01 0.0000000000000000e+00  2.2624182580156038e+00 -4.9962463359736975e-01 0.0000000000000000e+00  2.7865199883394691e+00 -4.1273275865432779e-01 0.0000000000000000e+00  3.2410140485686330e+00 -4.0295116350893523e-01 0.0000000000000000e+00  0.0000000000000000e+00 0.0000000000000000e+00 0.0000000000000000e+00  7.5716700369615697e-02 -1.8737456998276822e-01 0.0000000000000000e+00  2.5506264322939021e-01 -3.2360685587347748e-01 0.0000000000000000e+00  4.9243352057040390e-01 -3.7121222639370716e-01 0.0000000000000000e+00  7.4433524846330956e-01 -3.9737164672185704e-01 0.0000000000000000e+00  1.0074837953187477e+00 -4.3323047547972665e-01 0.0000000000000000e+00  1.3341405939656641e+00 -5.0962822952379927e-01 0.0000000000000000e+00  1.8103903471001306e+00 -6.9320249575892168e-01 0.0000000000000000e+00  2.3545483736982362e+00 -1.0186947124585557e+00 0.0000000000000000e+00  2.9494809257591887e+00 -9.4561385495749761e-01 0.0000000000000000e+00  3.6378534405521741e+00 -1.1131405252613555e+00 0.0000000000000000e+00  0.0000000000000000e+00 0.0000000000000000e+00 0.0000000000000000e+00  5.7205621034062952e-02 -4.3957555084750105e-01 0.0000000000000000e+00  2.3582054015312121e-01 -7.1709207984067858e-01 0.0000000000000000e+00  4.5842454064508265e-01 -8.4021546756760845e-01 0.0000000000000000e+00  6.8497854317864892e-01 -9.1761073733951160e-01 0.0000000000000000e+00  8.9982700117437331e-01 -9.9935526349001214e-01 0.0000000000000000e+00  1.0787691162141817e+00 -1.1067777974162538e+00 0.0000000000000000e+00  1.2613538465433611e+00 -1.2090420134165079e+00 0.0000000000000000e+00  1.7328542440849770e+00 -1.3729749472535153e+00 0.0000000000000000e+00  2.9180120636756266e+00 -2.3938799145399368e+00 0.0000000000000000e+00  3.4059418413946787e+00 -1.9747980931061646e+00 0.0000000000000000e+00  0.0000000000000000e+00 0.0000000000000000e+00 0.0000000000000000e+00  8.8190360466073828e-02 -3.8784171687087782e-01 0.0000000000000000e+00  2.4640354159581235e-01 -6.3999492918885170e-01 0.0000000000000000e+00  4.4414334977679704e-01 -6.9085032270455937e-01 0.0000000000000000e+00  6.4302103377506703e-01 -7.1495375877032064e-01 0.0000000000000000e+00  8.4034427529422806e-01 -7.7164052350979029e-01 0.0000000000000000e+00  1.0248456753368764e+00 -8.7396654392330819e-01 0.0000000000000000e+00  1.1245988034556231e+00 -1.0079627364713541e+00 0.0000000000000000e+00  1.6973756616053726e+00 -5.6226663780877406e-01 0.0000000000000000e+00  2.9824787854149744e+00 -2.3231596255149105e+00 0.0000000000000000e+00  1.1100815686894578e+01 -4.4292834138614863e+00 0.0000000000000000e+00  0.0000000000000000e+00 0.0000000000000000e+00 0.0000000000000000e+00  3.9204690993623205e-02 -7.9374348925578464e-01 0.0000000000000000e+00  2.0406718562665238e-01 -1.2042528366846448e+00 0.0000000000000000e+00  3.9347659955670006e-01 -1.3915811290969702e+00 0.0000000000000000e+00  5.8617236226462266e-01 -1.4964132471116349e+00 0.0000000000000000e+00  7.6799345625456528e-01 -1.5491050051884778e+00 0.0000000000000000e+00  8.7628738412152829e-01 -1.5983602133060546e+00 0.0000000000000000e+00  7.5553060982748177e-01 -1.9278444715865917e+00 0.0000000000000000e+00  3.8509944174892508e-01 -2.3647650426223787e+00 0.0000000000000000e+00  -4.2024987063395258e+00 -5.4767950440154536e+00 0.0000000000000000e+00  0.0000000000000000e+00 0.0000000000000000e+00 0.0000000000000000e+00  0.0000000000000000e+00 0.0000000000000000e+00 0.0000000000000000e+00  1.2123232753857678e-01 -6.2626610763255020e-01 0.0000000000000000e+00  2.6234967101433004e-01 -9.3244556465652140e-01 0.0000000000000000e+00  4.1187625861922023e-01 -9.3950339169861441e-01 0.0000000000000000e+00  5.5737164347743529e-01 -9.1099666886331787e-01 0.0000000000000000e+00  6.9853659140586266e-01 -8.4979784767123268e-01 0.0000000000000000e+00  7.3077349484767673e-01 -6.2896422203676206e-01 0.0000000000000000e+00  8.1268305083506320e-01 -3.3175477806798004e-01 0.0000000000000000e+00  -2.7954599795184611e+00 -3.6076622750258958e+00 0.0000000000000000e+00  -1.0735596849250763e+01 -6.5208094955294396e+00 0.0000000000000000e+00  0.0000000000000000e+00 0.0000000000000000e+00 0.0000000000000000e+00  0.0000000000000000e+00 0.0000000000000000e+00 0.0000000000000000e+00  1.5078671534008136e-02 -1.0327237004542191e+00 0.0000000000000000e+00  9.1395312213280233e-02 -1.5047952913427589e+00 0.0000000000000000e+00  2.8193657017651869e-01 -1.8542048855927096e+00 0.0000000000000000e+00  3.8732682811916830e-01 -1.9892588998091869e+00 0.0000000000000000e+00  4.6680194234438555e-01 -1.7586673624212101e+00 0.0000000000000000e+00  3.6472963107636247e-01 -1.4957769013475293e+00 0.0000000000000000e+00  6.2399058224020831e-01 -1.6128535872689760e+00 0.0000000000000000e+00  4.6776882736165926e-01 -2.3910762583677321e+00 0.0000000000000000e+00  1.1275848574386739e+01 -5.2070826768845970e+00 0.0000000000000000e+00  0.0000000000000000e+00 0.0000000000000000e+00 0.0000000000000000e+00  0.0000000000000000e+00 0.0000000000000000e+00 0.0000000000000000e+00  5.5188714959112234e-02 -9.4527009806415674e-01 0.0000000000000000e+00  1.7325866254053268e-01 -1.2156544373797349e+00 0.0000000000000000e+00  2.5259167437614610e-01 -1.1710234631981118e+00 0.0000000000000000e+00  -1.1673930932230752e-02 -9.0658250274501384e-01 0.0000000000000000e+00  2.1025803169821722e-01 -1.9095027976857168e-01 0.0000000000000000e+00  2.2058513729547632e-01 1.9043305654718709e-01 0.0000000000000000e+00  6.0598286589965167e-01 4.0348858273661209e-01 0.0000000000000000e+00  3.7936864202442382e+00 -8.8656961815538904e-01 0.0000000000000000e+00  4.5356313773582970e+00 3.4165444260950881e+00 0.0000000000000000e+00  0.0000000000000000e+00 0.0000000000000000e+00 0.0000000000000000e+00  0.0000000000000000e+00 0.0000000000000000e+00 0.0000000000000000e+00  -5.8489031528196865e-02 -9.1821385014129886e-01 0.0000000000000000e+00  -1.9696587984912006e-01 -1.1774791099711077e+00 0.0000000000000000e+00  -8.6004585728508998e-01 -1.7968686392991269e+00 0.0000000000000000e+00  -7.7890247500694887e-01 -2.5036329377360405e+00 0.0000000000000000e+00  1.2515370932352237e-02 -2.2889800819388713e+00 0.0000000000000000e+00  -1.8427534019673270e-01 -2.1754538797068537e+00 0.0000000000000000e+00  1.5856072013976007e-02 -2.2846475187028537e+00 0.0000000000000000e+00  5.8885311539141250e-01 -1.6260838470846719e+00 0.0000000000000000e+00  -2.9594052965214470e+01 -2.5461647108703655e+01 0.0000000000000000e+00  0.0000000000000000e+00 0.0000000000000000e+00 0.0000000000000000e+00  0.0000000000000000e+00 0.0000000000000000e+00 0.0000000000000000e+00  -7.2143904670206635e-02 -9.7262574347430064e-01 0.0000000000000000e+00  -2.6035833800437530e-01 -1.1332969153238006e+00 0.0000000000000000e+00  -1.2618614154519290e+00 -1.2684401711181643e+00 0.0000000000000000e+00  -1.0303014599567559e+00 -1.5501964347136588e+00 0.0000000000000000e+00  0.0000000000000000e+00 0.0000000000000000e+00 0.0000000000000000e+00  0.0000000000000000e+00 0.0000000000000000e+00 0.0000000000000000e+00  0.0000000000000000e+00 0.0000000000000000e+00 0.0000000000000000e+00  0.0000000000000000e+00 0.0000000000000000e+00 0.0000000000000000e+00  0.0000000000000000e+00 0.0000000000000000e+00 0.0000000000000000e+00  0.0000000000000000e+00 0.0000000000000000e+00 0.0000000000000000e+00  </DataArray> 
</PointData> 
</Piece>
</UnstructuredGrid>
</VTKFile>