<?xml version="1.0"?>
<VTKFile type="UnstructuredGrid"  version="0.1"  >
<UnstructuredGrid>
<Piece  NumberOfPoints="121" NumberOfCells="200">
<Points>
<DataArray  type="Float64"  NumberOfComponents="3"  format="ascii">0 0 0  0.1 0 0  0.2 0 0  0.3 0 0  0.4 0 0  0.5 0 0  0.6 0 0  0.7 0 0  0.8 0 0  0.9 0 0  1 0 0  0 0.1 0  0.1 0.1 0  0.2 0.1 0  0.3 0.1 0  0.4 0.1 0  0.5 0.1 0  0.6 0.1 0  0.7 0.1 0  0.8 0.1 0  0.9 0.1 0  1 0.1 0  0 0.2 0  0.1 0.2 0  0.2 0.2 0  0.3 0.2 0  0.4 0.2 0  0.5 0.2 0  0.6 0.2 0  0.7 0.2 0  0.8 0.2 0  0.9 0.2 0  1 0.2 0  0 0.3 0  0.1 0.3 0  0.2 0.3 0  0.3 0.3 0  0.4 0.3 0  0.5 0.3 0  0.6 0.3 0  0.7 0.3 0  0.8 0.3 0  0.9 0.3 0  1 0.3 0  0 0.4 0  0.1 0.4 0  0.2 0.4 0  0.3 0.4 0  0.4 0.4 0  0.5 0.4 0  0.6 0.4 0  0.7 0.4 0  0.8 0.4 0  0.9 0.4 0  1 0.4 0  0 0.5 0  0.1 0.5 0  0.2 0.5 0  0.3 0.5 0  0.4 0.5 0  0.5 0.5 0  0.6 0.5 0  0.7 0.5 0  0.8 0.5 0  0.9 0.5 0  1 0.5 0  0 0.6 0  0.1 0.6 0  0.2 0.6 0  0.3 0.6 0  0.4 0.6 0  0.5 0.6 0  0.6 0.6 0  0.7 0.6 0  0.8 0.6 0  0.9 0.6 0  1 0.6 0  0 0.7 0  0.1 0.7 0  0.2 0.7 0  0.3 0.7 0  0.4 0.7 0  0.5 0.7 0  0.6 0.7 0  0.7 0.7 0  0.8 0.7 0  0.9 0.7 0  1 0.7 0  0 0.8 0  0.1 0.8 0  0.2 0.8 0  0.3 0.8 0  0.4 0.8 0  0.5 0.8 0  0.6 0.8 0  0.7 0.8 0  0.8 0.8 0  0.9 0.8 0  1 0.8 0  0 0.9 0  0.1 0.9 0  0.2 0.9 0  0.3 0.9 0  0.4 0.9 0  0.5 0.9 0  0.6 0.9 0  0.7 0.9 0  0.8 0.9 0  0.9 0.9 0  1 0.9 0  0 1 0  0.1 1 0  0.2 1 0  0.3 1 0  0.4 1 0  0.5 1 0  0.6 1 0  0.7 1 0  0.8 1 0  0.9 1 0  1 1 0  </DataArray>
</Points>
<Cells>
<DataArray  type="UInt32"  Name="connectivity"  format="ascii">0 1 12  0 11 12  1 2 13  1 12 13  2 3 14  2 13 14  3 4 15  3 14 15  4 5 16  4 15 16  5 6 17  5 16 17  6 7 18  6 17 18  7 8 19  7 18 19  8 9 20  8 19 20  9 10 21  9 20 21  11 12 23  11 22 23  12 13 24  12 23 24  13 14 25  13 24 25  14 15 26  14 25 26  15 16 27  15 26 27  16 17 28  16 27 28  17 18 29  17 28 29  18 19 30  18 29 30  19 20 31  19 30 31  20 21 32  20 31 32  22 23 34  22 33 34  23 24 35  23 34 35  24 25 36  24 35 36  25 26 37  25 36 37  26 27 38  26 37 38  27 28 39  27 38 39  28 29 40  28 39 40  29 30 41  29 40 41  30 31 42  30 41 42  31 32 43  31 42 43  33 34 45  33 44 45  34 35 46  34 45 46  35 36 47  35 46 47  36 37 48  36 47 48  37 38 49  37 48 49  38 39 50  38 49 50  39 40 51  39 50 51  40 41 52  40 51 52  41 42 53  41 52 53  42 43 54  42 53 54  44 45 56  44 55 56  45 46 57  45 56 57  46 47 58  46 57 58  47 48 59  47 58 59  48 49 60  48 59 60  49 50 61  49 60 61  50 51 62  50 61 62  51 52 63  51 62 63  52 53 64  52 63 64  53 54 65  53 64 65  55 56 67  55 66 67  56 57 68  56 67 68  57 58 69  57 68 69  58 59 70  58 69 70  59 60 71  59 70 71  60 61 72  60 71 72  61 62 73  61 72 73  62 63 74  62 73 74  63 64 75  63 74 75  64 65 76  64 75 76  66 67 78  66 77 78  67 68 79  67 78 79  68 69 80  68 79 80  69 70 81  69 80 81  70 71 82  70 81 82  71 72 83  71 82 83  72 73 84  72 83 84  73 74 85  73 84 85  74 75 86  74 85 86  75 76 87  75 86 87  77 78 89  77 88 89  78 79 90  78 89 90  79 80 91  79 90 91  80 81 92  80 91 92  81 82 93  81 92 93  82 83 94  82 93 94  83 84 95  83 94 95  84 85 96  84 95 96  85 86 97  85 96 97  86 87 98  86 97 98  88 89 100  88 99 100  89 90 101  89 100 101  90 91 102  90 101 102  91 92 103  91 102 103  92 93 104  92 103 104  93 94 105  93 104 105  94 95 106  94 105 106  95 96 107  95 106 107  96 97 108  96 107 108  97 98 109  97 108 109  99 100 111  99 110 111  100 101 112  100 111 112  101 102 113  101 112 113  102 103 114  102 113 114  103 104 115  103 114 115  104 105 116  104 115 116  105 106 117  105 116 117  106 107 118  106 117 118  107 108 119  107 118 119  108 109 120  108 119 120  </DataArray>
<DataArray  type="UInt32"  Name="offsets"  format="ascii">3 6 9 12 15 18 21 24 27 30 33 36 39 42 45 48 51 54 57 60 63 66 69 72 75 78 81 84 87 90 93 96 99 102 105 108 111 114 117 120 123 126 129 132 135 138 141 144 147 150 153 156 159 162 165 168 171 174 177 180 183 186 189 192 195 198 201 204 207 210 213 216 219 222 225 228 231 234 237 240 243 246 249 252 255 258 261 264 267 270 273 276 279 282 285 288 291 294 297 300 303 306 309 312 315 318 321 324 327 330 333 336 339 342 345 348 351 354 357 360 363 366 369 372 375 378 381 384 387 390 393 396 399 402 405 408 411 414 417 420 423 426 429 432 435 438 441 444 447 450 453 456 459 462 465 468 471 474 477 480 483 486 489 492 495 498 501 504 507 510 513 516 519 522 525 528 531 534 537 540 543 546 549 552 555 558 561 564 567 570 573 576 579 582 585 588 591 594 597 600 </DataArray>
<DataArray  type="UInt8"  Name="types"  format="ascii">5 5 5 5 5 5 5 5 5 5 5 5 5 5 5 5 5 5 5 5 5 5 5 5 5 5 5 5 5 5 5 5 5 5 5 5 5 5 5 5 5 5 5 5 5 5 5 5 5 5 5 5 5 5 5 5 5 5 5 5 5 5 5 5 5 5 5 5 5 5 5 5 5 5 5 5 5 5 5 5 5 5 5 5 5 5 5 5 5 5 5 5 5 5 5 5 5 5 5 5 5 5 5 5 5 5 5 5 5 5 5 5 5 5 5 5 5 5 5 5 5 5 5 5 5 5 5 5 5 5 5 5 5 5 5 5 5 5 5 5 5 5 5 5 5 5 5 5 5 5 5 5 5 5 5 5 5 5 5 5 5 5 5 5 5 5 5 5 5 5 5 5 5 5 5 5 5 5 5 5 5 5 5 5 5 5 5 5 5 5 5 5 5 5 5 5 5 5 5 5 </DataArray>
</Cells>
<PointData  Vectors="f_22"> 
<DataArray  type="Float64"  Name="f_22"  NumberOfComponents="3" format="ascii">0.0000000000000000e+00 0.0000000000000000e+00 0.0000000000000000e+00  0.0000000000000000e+00 0.0000000000000000e+00 0.0000000000000000e+00  0.0000000000000000e+00 0.0000000000000000e+00 0.0000000000000000e+00  0.0000000000000000e+00 0.0000000000000000e+00 0.0000000000000000e+00  0.0000000000000000e+00 0.0000000000000000e+00 0.0000000000000000e+00  0.0000000000000000e+00 0.0000000000000000e+00 0.0000000000000000e+00  0.0000000000000000e+00 0.0000000000000000e+00 0.0000000000000000e+00  0.0000000000000000e+00 0.0000000000000000e+00 0.0000000000000000e+00  0.0000000000000000e+00 0.0000000000000000e+00 0.0000000000000000e+00  0.0000000000000000e+00 0.0000000000000000e+00 0.0000000000000000e+00  0.0000000000000000e+00 0.0000000000000000e+00 0.0000000000000000e+00  0.0000000000000000e+00 0.0000000000000000e+00 0.0000000000000000e+00  -2.4715436808097836e-03 2.1370907669155713e-03 0.0000000000000000e+00  -1.4116751351885160e-02 5.1616038186211646e-03 0.0000000000000000e+00  -2.4405064755893203e-02 2.3545965481579869e-03 0.0000000000000000e+00  -2.8883556726850813e-02 -8.1830318750732984e-07 0.0000000000000000e+00  -3.0459416709606967e-02 -1.3148564838661391e-03 0.0000000000000000e+00  -2.8290305204739467e-02 -2.9892553502732181e-03 0.0000000000000000e+00  -2.1712071281528026e-02 -7.3864402382454349e-03 0.0000000000000000e+00  -3.8845915846010448e-03 -1.7468106775025336e-02 0.0000000000000000e+00  3.6150945435103068e-02 -3.1445407962233531e-02 0.0000000000000000e+00  6.6409106266963794e-02 -4.5766916826369290e-02 0.0000000000000000e+00  0.0000000000000000e+00 0.0000000000000000e+00 0.0000000000000000e+00  -8.0818148756043769e-03 1.5849372904538299e-02 0.0000000000000000e+00  -2.6585091019312161e-02 2.0740992846929578e-02 0.0000000000000000e+00  -4.0143510763127763e-02 1.0841450113289191e-02 0.0000000000000000e+00  -4.4437654856334073e-02 2.5814198920302077e-03 0.0000000000000000e+00  -4.5945966925109744e-02 -2.0714972412063330e-03 0.0000000000000000e+00  -4.1518362920329281e-02 -6.4965200669296064e-03 0.0000000000000000e+00  -4.1470329287081477e-02 -1.8076667031750482e-02 0.0000000000000000e+00  -2.9278721372371311e-02 -3.9169764010655132e-02 0.0000000000000000e+00  -2.0418421577495949e-02 -6.5238612269398158e-02 0.0000000000000000e+00  -1.4336542471697513e-02 -8.6100811069921040e-02 0.0000000000000000e+00  0.0000000000000000e+00 0.0000000000000000e+00 0.0000000000000000e+00  -7.3965561924226068e-03 3.2427031184334647e-02 0.0000000000000000e+00  -2.4160898626899220e-02 3.7327419069518523e-02 0.0000000000000000e+00  -3.4965050080419190e-02 1.8121697861405332e-02 0.0000000000000000e+00  -3.6101176796202596e-02 3.4280166334273343e-03 0.0000000000000000e+00  -3.8588629048050112e-02 -2.5658872888611886e-03 0.0000000000000000e+00  -3.6015127320891155e-02 -4.7373707934134385e-03 0.0000000000000000e+00  -5.9929184426593195e-02 -1.1959164614462767e-02 0.0000000000000000e+00  -6.9549641287908984e-02 -2.3049034219782893e-02 0.0000000000000000e+00  -1.3747118215910784e-01 -4.8805732472615777e-02 0.0000000000000000e+00  -1.5696139985347499e-01 -7.5765337573953942e-02 0.0000000000000000e+00  0.0000000000000000e+00 0.0000000000000000e+00 0.0000000000000000e+00  -6.5828169805317938e-03 4.7182947614138451e-02 0.0000000000000000e+00  -2.1454258064444270e-02 5.1447975484477285e-02 0.0000000000000000e+00  -3.1160294455708306e-02 2.3109109618166104e-02 0.0000000000000000e+00  -3.2058589807384817e-02 4.1334253584514452e-03 0.0000000000000000e+00  -4.0230676510513014e-02 9.6570256623752240e-04 0.0000000000000000e+00  -4.2537926435121373e-02 7.7840142011149204e-03 0.0000000000000000e+00  -9.0766836052542085e-02 2.0111912865086987e-02 0.0000000000000000e+00  -1.0521808576256195e-01 3.3264965201791764e-02 0.0000000000000000e+00  -2.3749216582928079e-01 6.6278743286008893e-03 0.0000000000000000e+00  -2.3479956393903123e-01 -2.7075436012202785e-02 0.0000000000000000e+00  0.0000000000000000e+00 0.0000000000000000e+00 0.0000000000000000e+00  -7.6697149686503251e-03 6.1816266528290593e-02 0.0000000000000000e+00  -2.3516400092795701e-02 6.5228409987359903e-02 0.0000000000000000e+00  -3.5605163169814796e-02 2.9141724638331742e-02 0.0000000000000000e+00  -4.0424897128862533e-02 9.0891433725258219e-03 0.0000000000000000e+00  -5.8764595115837918e-02 1.1785356950960543e-02 0.0000000000000000e+00  -6.5113200587643999e-02 2.9207900752362650e-02 0.0000000000000000e+00  -1.2107711232166531e-01 5.8014936060912431e-02 0.0000000000000000e+00  -9.8636084870825980e-02 7.7581790995046307e-02 0.0000000000000000e+00  -2.0935956835896979e-01 4.9323476831162311e-02 0.0000000000000000e+00  0.0000000000000000e+00 0.0000000000000000e+00 0.0000000000000000e+00  0.0000000000000000e+00 0.0000000000000000e+00 0.0000000000000000e+00  -1.0703043308826089e-02 7.9330262352661815e-02 0.0000000000000000e+00  -3.1293957264772063e-02 8.2297142470326365e-02 0.0000000000000000e+00  -5.0596339864882794e-02 4.1032065907962392e-02 0.0000000000000000e+00  -6.6167531966073792e-02 2.3608152409298099e-02 0.0000000000000000e+00  -9.9061962195394954e-02 3.3213099220197870e-02 0.0000000000000000e+00  -1.1069854895714311e-01 5.5400378045579776e-02 0.0000000000000000e+00  -1.6301797344580343e-01 7.9446082999649725e-02 0.0000000000000000e+00  -9.9998695024024115e-02 7.9006227733476000e-02 0.0000000000000000e+00  -1.7511694480783077e-01 3.2591156023475676e-02 0.0000000000000000e+00  0.0000000000000000e+00 0.0000000000000000e+00 0.0000000000000000e+00  0.0000000000000000e+00 0.0000000000000000e+00 0.0000000000000000e+00  -1.5263781978183474e-02 1.0278894462158251e-01 0.0000000000000000e+00  -4.5411538413733826e-02 1.0737783247137839e-01 0.0000000000000000e+00  -7.7881816644952334e-02 6.6010824166613496e-02 0.0000000000000000e+00  -1.1455061948543646e-01 5.5654342364160114e-02 0.0000000000000000e+00  -1.6479479745685871e-01 6.9338112476415054e-02 0.0000000000000000e+00  -1.8883985939304504e-01 8.2868315457182720e-02 0.0000000000000000e+00  -2.2626145589306176e-01 8.0181059616027700e-02 0.0000000000000000e+00  -1.3733518116957158e-01 4.0256312709366179e-02 0.0000000000000000e+00  -1.7615585545909490e-01 -4.6450662903351420e-03 0.0000000000000000e+00  0.0000000000000000e+00 0.0000000000000000e+00 0.0000000000000000e+00  0.0000000000000000e+00 0.0000000000000000e+00 0.0000000000000000e+00  -2.0001410272379488e-02 1.3410875301755190e-01 0.0000000000000000e+00  -6.3297400020019656e-02 1.4653928008990438e-01 0.0000000000000000e+00  -1.1364594667671073e-01 1.1527416118613798e-01 0.0000000000000000e+00  -1.8796045622633611e-01 1.1185915629021549e-01 0.0000000000000000e+00  -2.5348164668108331e-01 1.1637790805548506e-01 0.0000000000000000e+00  -2.8686819449452100e-01 1.1041383141114905e-01 0.0000000000000000e+00  -2.8571148798653456e-01 6.9186050736413360e-02 0.0000000000000000e+00  -1.9754716011848950e-01 -3.1794715348459020e-02 0.0000000000000000e+00  -1.3647663463359785e-01 -7.3719335188026813e-02 0.0000000000000000e+00  0.0000000000000000e+00 0.0000000000000000e+00 0.0000000000000000e+00  0.0000000000000000e+00 0.0000000000000000e+00 0.0000000000000000e+00  -2.1899837366492276e-02 1.7191226474063986e-01 0.0000000000000000e+00  -7.3261549205465626e-02 2.0378279269557506e-01 0.0000000000000000e+00  -1.4345301485998935e-01 1.9375083548574837e-01 0.0000000000000000e+00  -2.7342667435073104e-01 2.0599648841643692e-01 0.0000000000000000e+00  -3.3910111180978286e-01 1.8923322357842745e-01 0.0000000000000000e+00  -3.4504066879750234e-01 1.1707630839462886e-01 0.0000000000000000e+00  -2.7355574128328936e-01 -4.9520024475217000e-02 0.0000000000000000e+00  -1.5600940955879694e-01 -2.6744545355322724e-01 0.0000000000000000e+00  6.1926942666823186e-02 -3.0578256290553768e-01 0.0000000000000000e+00  0.0000000000000000e+00 0.0000000000000000e+00 0.0000000000000000e+00  0.0000000000000000e+00 0.0000000000000000e+00 0.0000000000000000e+00  -1.8783186239233949e-02 2.0144842294708507e-01 0.0000000000000000e+00  -6.5859821801818791e-02 2.5377196910623984e-01 0.0000000000000000e+00  -1.6438537590662161e-01 2.8254883665209596e-01 0.0000000000000000e+00  -3.1559809350559348e-01 3.0711983124857811e-01 0.0000000000000000e+00  0.0000000000000000e+00 0.0000000000000000e+00 0.0000000000000000e+00  0.0000000000000000e+00 0.0000000000000000e+00 0.0000000000000000e+00  0.0000000000000000e+00 0.0000000000000000e+00 0.0000000000000000e+00  0.0000000000000000e+00 0.0000000000000000e+00 0.0000000000000000e+00  0.0000000000000000e+00 0.0000000000000000e+00 0.0000000000000000e+00  0.0000000000000000e+00 0.0000000000000000e+00 0.0000000000000000e+00  </DataArray> 
</PointData> 
</Piece>
</UnstructuredGrid>
</VTKFile>