<?xml version="1.0"?>
<VTKFile type="UnstructuredGrid"  version="0.1"  >
<UnstructuredGrid>
<Piece  NumberOfPoints="121" NumberOfCells="200">
<Points>
<DataArray  type="Float64"  NumberOfComponents="3"  format="ascii">0 0 0  0.1 0 0  0.2 0 0  0.3 0 0  0.4 0 0  0.5 0 0  0.6 0 0  0.7 0 0  0.8 0 0  0.9 0 0  1 0 0  0 0.1 0  0.1 0.1 0  0.2 0.1 0  0.3 0.1 0  0.4 0.1 0  0.5 0.1 0  0.6 0.1 0  0.7 0.1 0  0.8 0.1 0  0.9 0.1 0  1 0.1 0  0 0.2 0  0.1 0.2 0  0.2 0.2 0  0.3 0.2 0  0.4 0.2 0  0.5 0.2 0  0.6 0.2 0  0.7 0.2 0  0.8 0.2 0  0.9 0.2 0  1 0.2 0  0 0.3 0  0.1 0.3 0  0.2 0.3 0  0.3 0.3 0  0.4 0.3 0  0.5 0.3 0  0.6 0.3 0  0.7 0.3 0  0.8 0.3 0  0.9 0.3 0  1 0.3 0  0 0.4 0  0.1 0.4 0  0.2 0.4 0  0.3 0.4 0  0.4 0.4 0  0.5 0.4 0  0.6 0.4 0  0.7 0.4 0  0.8 0.4 0  0.9 0.4 0  1 0.4 0  0 0.5 0  0.1 0.5 0  0.2 0.5 0  0.3 0.5 0  0.4 0.5 0  0.5 0.5 0  0.6 0.5 0  0.7 0.5 0  0.8 0.5 0  0.9 0.5 0  1 0.5 0  0 0.6 0  0.1 0.6 0  0.2 0.6 0  0.3 0.6 0  0.4 0.6 0  0.5 0.6 0  0.6 0.6 0  0.7 0.6 0  0.8 0.6 0  0.9 0.6 0  1 0.6 0  0 0.7 0  0.1 0.7 0  0.2 0.7 0  0.3 0.7 0  0.4 0.7 0  0.5 0.7 0  0.6 0.7 0  0.7 0.7 0  0.8 0.7 0  0.9 0.7 0  1 0.7 0  0 0.8 0  0.1 0.8 0  0.2 0.8 0  0.3 0.8 0  0.4 0.8 0  0.5 0.8 0  0.6 0.8 0  0.7 0.8 0  0.8 0.8 0  0.9 0.8 0  1 0.8 0  0 0.9 0  0.1 0.9 0  0.2 0.9 0  0.3 0.9 0  0.4 0.9 0  0.5 0.9 0  0.6 0.9 0  0.7 0.9 0  0.8 0.9 0  0.9 0.9 0  1 0.9 0  0 1 0  0.1 1 0  0.2 1 0  0.3 1 0  0.4 1 0  0.5 1 0  0.6 1 0  0.7 1 0  0.8 1 0  0.9 1 0  1 1 0  </DataArray>
</Points>
<Cells>
<DataArray  type="UInt32"  Name="connectivity"  format="ascii">0 1 12  0 11 12  1 2 13  1 12 13  2 3 14  2 13 14  3 4 15  3 14 15  4 5 16  4 15 16  5 6 17  5 16 17  6 7 18  6 17 18  7 8 19  7 18 19  8 9 20  8 19 20  9 10 21  9 20 21  11 12 23  11 22 23  12 13 24  12 23 24  13 14 25  13 24 25  14 15 26  14 25 26  15 16 27  15 26 27  16 17 28  16 27 28  17 18 29  17 28 29  18 19 30  18 29 30  19 20 31  19 30 31  20 21 32  20 31 32  22 23 34  22 33 34  23 24 35  23 34 35  24 25 36  24 35 36  25 26 37  25 36 37  26 27 38  26 37 38  27 28 39  27 38 39  28 29 40  28 39 40  29 30 41  29 40 41  30 31 42  30 41 42  31 32 43  31 42 43  33 34 45  33 44 45  34 35 46  34 45 46  35 36 47  35 46 47  36 37 48  36 47 48  37 38 49  37 48 49  38 39 50  38 49 50  39 40 51  39 50 51  40 41 52  40 51 52  41 42 53  41 52 53  42 43 54  42 53 54  44 45 56  44 55 56  45 46 57  45 56 57  46 47 58  46 57 58  47 48 59  47 58 59  48 49 60  48 59 60  49 50 61  49 60 61  50 51 62  50 61 62  51 52 63  51 62 63  52 53 64  52 63 64  53 54 65  53 64 65  55 56 67  55 66 67  56 57 68  56 67 68  57 58 69  57 68 69  58 59 70  58 69 70  59 60 71  59 70 71  60 61 72  60 71 72  61 62 73  61 72 73  62 63 74  62 73 74  63 64 75  63 74 75  64 65 76  64 75 76  66 67 78  66 77 78  67 68 79  67 78 79  68 69 80  68 79 80  69 70 81  69 80 81  70 71 82  70 81 82  71 72 83  71 82 83  72 73 84  72 83 84  73 74 85  73 84 85  74 75 86  74 85 86  75 76 87  75 86 87  77 78 89  77 88 89  78 79 90  78 89 90  79 80 91  79 90 91  80 81 92  80 91 92  81 82 93  81 92 93  82 83 94  82 93 94  83 84 95  83 94 95  84 85 96  84 95 96  85 86 97  85 96 97  86 87 98  86 97 98  88 89 100  88 99 100  89 90 101  89 100 101  90 91 102  90 101 102  91 92 103  91 102 103  92 93 104  92 103 104  93 94 105  93 104 105  94 95 106  94 105 106  95 96 107  95 106 107  96 97 108  96 107 108  97 98 109  97 108 109  99 100 111  99 110 111  100 101 112  100 111 112  101 102 113  101 112 113  102 103 114  102 113 114  103 104 115  103 114 115  104 105 116  104 115 116  105 106 117  105 116 117  106 107 118  106 117 118  107 108 119  107 118 119  108 109 120  108 119 120  </DataArray>
<DataArray  type="UInt32"  Name="offsets"  format="ascii">3 6 9 12 15 18 21 24 27 30 33 36 39 42 45 48 51 54 57 60 63 66 69 72 75 78 81 84 87 90 93 96 99 102 105 108 111 114 117 120 123 126 129 132 135 138 141 144 147 150 153 156 159 162 165 168 171 174 177 180 183 186 189 192 195 198 201 204 207 210 213 216 219 222 225 228 231 234 237 240 243 246 249 252 255 258 261 264 267 270 273 276 279 282 285 288 291 294 297 300 303 306 309 312 315 318 321 324 327 330 333 336 339 342 345 348 351 354 357 360 363 366 369 372 375 378 381 384 387 390 393 396 399 402 405 408 411 414 417 420 423 426 429 432 435 438 441 444 447 450 453 456 459 462 465 468 471 474 477 480 483 486 489 492 495 498 501 504 507 510 513 516 519 522 525 528 531 534 537 540 543 546 549 552 555 558 561 564 567 570 573 576 579 582 585 588 591 594 597 600 </DataArray>
<DataArray  type="UInt8"  Name="types"  format="ascii">5 5 5 5 5 5 5 5 5 5 5 5 5 5 5 5 5 5 5 5 5 5 5 5 5 5 5 5 5 5 5 5 5 5 5 5 5 5 5 5 5 5 5 5 5 5 5 5 5 5 5 5 5 5 5 5 5 5 5 5 5 5 5 5 5 5 5 5 5 5 5 5 5 5 5 5 5 5 5 5 5 5 5 5 5 5 5 5 5 5 5 5 5 5 5 5 5 5 5 5 5 5 5 5 5 5 5 5 5 5 5 5 5 5 5 5 5 5 5 5 5 5 5 5 5 5 5 5 5 5 5 5 5 5 5 5 5 5 5 5 5 5 5 5 5 5 5 5 5 5 5 5 5 5 5 5 5 5 5 5 5 5 5 5 5 5 5 5 5 5 5 5 5 5 5 5 5 5 5 5 5 5 5 5 5 5 5 5 5 5 5 5 5 5 5 5 5 5 5 5 </DataArray>
</Cells>
<PointData  Vectors="f_22"> 
<DataArray  type="Float64"  Name="f_22"  NumberOfComponents="3" format="ascii">0.0000000000000000e+00 0.0000000000000000e+00 0.0000000000000000e+00  0.0000000000000000e+00 0.0000000000000000e+00 0.0000000000000000e+00  0.0000000000000000e+00 0.0000000000000000e+00 0.0000000000000000e+00  0.0000000000000000e+00 0.0000000000000000e+00 0.0000000000000000e+00  0.0000000000000000e+00 0.0000000000000000e+00 0.0000000000000000e+00  0.0000000000000000e+00 0.0000000000000000e+00 0.0000000000000000e+00  0.0000000000000000e+00 0.0000000000000000e+00 0.0000000000000000e+00  0.0000000000000000e+00 0.0000000000000000e+00 0.0000000000000000e+00  0.0000000000000000e+00 0.0000000000000000e+00 0.0000000000000000e+00  0.0000000000000000e+00 0.0000000000000000e+00 0.0000000000000000e+00  0.0000000000000000e+00 0.0000000000000000e+00 0.0000000000000000e+00  0.0000000000000000e+00 0.0000000000000000e+00 0.0000000000000000e+00  5.6448117840465850e-03 -5.9461155894240574e-03 0.0000000000000000e+00  6.8512066685104166e-03 -3.1687890607477410e-03 0.0000000000000000e+00  8.4595611145987133e-03 -5.1982934830641959e-03 0.0000000000000000e+00  1.4735985084963538e-02 -7.2181711480936777e-03 0.0000000000000000e+00  2.3524661082464093e-02 -8.1199524749731525e-03 0.0000000000000000e+00  3.4822860322409645e-02 -9.1197541209287192e-03 0.0000000000000000e+00  4.9232622199705131e-02 -1.2144824422951431e-02 0.0000000000000000e+00  7.1785168426587803e-02 -1.9501085558346291e-02 0.0000000000000000e+00  1.0985716535008183e-01 -2.9648802612190679e-02 0.0000000000000000e+00  1.3833147952813463e-01 -4.1010038205853881e-02 0.0000000000000000e+00  0.0000000000000000e+00 0.0000000000000000e+00 0.0000000000000000e+00  9.9517570695462749e-04 -5.5144422491109502e-03 0.0000000000000000e+00  -3.9091470376483089e-03 -4.0278080983361254e-04 0.0000000000000000e+00  -5.5139629481666197e-03 -8.0389536604285917e-03 0.0000000000000000e+00  6.4200701243950439e-04 -1.5227476619099026e-02 0.0000000000000000e+00  9.6776549961664349e-03 -1.8753603736414444e-02 0.0000000000000000e+00  2.2259016778599979e-02 -2.1473388401660187e-02 0.0000000000000000e+00  3.1514804704921386e-02 -2.9049050877663098e-02 0.0000000000000000e+00  4.6574921311055215e-02 -4.3783730707828906e-02 0.0000000000000000e+00  5.8168039320513287e-02 -6.1394534463407514e-02 0.0000000000000000e+00  6.3754540940290622e-02 -7.5823814951727103e-02 0.0000000000000000e+00  0.0000000000000000e+00 0.0000000000000000e+00 0.0000000000000000e+00  1.1683449514559067e-03 -2.0322158115404212e-03 0.0000000000000000e+00  -2.8656650052502268e-03 3.8089655732875096e-03 0.0000000000000000e+00  -2.3679452554268578e-03 -1.1572821590290770e-02 0.0000000000000000e+00  6.2996561925818539e-03 -2.4574446963806128e-02 0.0000000000000000e+00  1.4914079412156641e-02 -2.9027479163790670e-02 0.0000000000000000e+00  2.4508059278136415e-02 -2.8742400700329747e-02 0.0000000000000000e+00  1.5177941116348702e-02 -3.0233331524263093e-02 0.0000000000000000e+00  6.4010613368337506e-03 -3.5780384634247209e-02 0.0000000000000000e+00  -3.8381870217653651e-02 -5.0095979121635582e-02 0.0000000000000000e+00  -5.7860512256346648e-02 -6.5137606047249136e-02 0.0000000000000000e+00  0.0000000000000000e+00 0.0000000000000000e+00 0.0000000000000000e+00  1.8044628752433563e-03 1.8405853957573101e-04 0.0000000000000000e+00  -7.0484338031859284e-04 6.0640927926364002e-03 0.0000000000000000e+00  9.5358763304387100e-04 -1.7128577474179337e-02 0.0000000000000000e+00  9.6850273827575935e-03 -3.4188104819510054e-02 0.0000000000000000e+00  1.4297765928372067e-02 -3.5914799496614316e-02 0.0000000000000000e+00  1.8393353059780904e-02 -2.6502742883825196e-02 0.0000000000000000e+00  -6.5375595772678898e-03 -1.0165312564739614e-02 0.0000000000000000e+00  -2.3870150056427446e-02 2.8520191221445821e-03 0.0000000000000000e+00  -9.8234376922322092e-02 -8.9451852221332281e-03 0.0000000000000000e+00  -1.0613313180467115e-01 -2.4658164815414441e-02 0.0000000000000000e+00  0.0000000000000000e+00 0.0000000000000000e+00 0.0000000000000000e+00  5.2292272054806728e-04 2.5631969213441336e-03 0.0000000000000000e+00  -3.4290592192284261e-03 8.2164326792125777e-03 0.0000000000000000e+00  -4.1640238792886473e-03 -2.1672963412273372e-02 0.0000000000000000e+00  3.1374606990315802e-04 -4.0142596494883047e-02 0.0000000000000000e+00  -2.7018508550519628e-03 -3.6973914838404447e-02 0.0000000000000000e+00  -2.6488872580263754e-03 -1.8237550711997806e-02 0.0000000000000000e+00  -2.5308897017133687e-02 1.0492522249282800e-02 0.0000000000000000e+00  -1.3663869010221491e-02 2.7654610360038735e-02 0.0000000000000000e+00  -4.6799076744902184e-02 1.4182611362277279e-02 0.0000000000000000e+00  0.0000000000000000e+00 0.0000000000000000e+00 0.0000000000000000e+00  0.0000000000000000e+00 0.0000000000000000e+00 0.0000000000000000e+00  -3.1293052978587860e-03 8.5563648197121128e-03 0.0000000000000000e+00  -1.2893885016562147e-02 1.4278947751907972e-02 0.0000000000000000e+00  -2.1322436990696327e-02 -2.0424724292435217e-02 0.0000000000000000e+00  -2.7720324243290788e-02 -3.7428803613408300e-02 0.0000000000000000e+00  -4.2191288715815199e-02 -2.9353859083525047e-02 0.0000000000000000e+00  -4.6374999629059027e-02 -9.0997122475029429e-03 0.0000000000000000e+00  -5.4726936915109346e-02 1.0005935326823846e-02 0.0000000000000000e+00  -5.0186939899179500e-03 8.2773890322896063e-03 0.0000000000000000e+00  1.4620867665938439e-02 -1.1336453237046649e-02 0.0000000000000000e+00  0.0000000000000000e+00 0.0000000000000000e+00 0.0000000000000000e+00  0.0000000000000000e+00 0.0000000000000000e+00 0.0000000000000000e+00  -9.0887480253852137e-03 2.2161622501757482e-02 0.0000000000000000e+00  -3.0401775330351766e-02 2.9545890059260078e-02 0.0000000000000000e+00  -5.2991879531052298e-02 -5.7397883460346593e-03 0.0000000000000000e+00  -7.9479083351532573e-02 -1.7455521240938073e-02 0.0000000000000000e+00  -1.0963396456871149e-01 -1.0302591636376210e-02 0.0000000000000000e+00  -1.2212803817944953e-01 -7.8598563147065596e-03 0.0000000000000000e+00  -1.0801940728669174e-01 -2.5467302258194522e-02 0.0000000000000000e+00  -2.5365033763112818e-02 -6.4516283290575918e-02 0.0000000000000000e+00  5.4703384922065439e-02 -7.3993263376573012e-02 0.0000000000000000e+00  0.0000000000000000e+00 0.0000000000000000e+00 0.0000000000000000e+00  0.0000000000000000e+00 0.0000000000000000e+00 0.0000000000000000e+00  -1.6585142032365122e-02 4.6441121617757028e-02 0.0000000000000000e+00  -5.4283505534837191e-02 6.0647991089936008e-02 0.0000000000000000e+00  -9.6193993891681512e-02 3.2290744858840072e-02 0.0000000000000000e+00  -1.5569763536394265e-01 2.3120228719038689e-02 0.0000000000000000e+00  -1.9938781916385381e-01 1.8478465801906076e-02 0.0000000000000000e+00  -2.0724638499998893e-01 3.4968893547181069e-03 0.0000000000000000e+00  -1.5345362213055683e-01 -4.0538547194475319e-02 0.0000000000000000e+00  -4.6140245174667568e-02 -1.2337948755418060e-01 0.0000000000000000e+00  1.1929132351155776e-01 -1.4784958888130437e-01 0.0000000000000000e+00  0.0000000000000000e+00 0.0000000000000000e+00 0.0000000000000000e+00  0.0000000000000000e+00 0.0000000000000000e+00 0.0000000000000000e+00  -2.2359875063416228e-02 8.3838449524750849e-02 0.0000000000000000e+00  -7.4304113111804654e-02 1.1615869390234035e-01 0.0000000000000000e+00  -1.4341682050466467e-01 1.0146617594713236e-01 0.0000000000000000e+00  -2.4664121397091648e-01 8.7602833266930275e-02 0.0000000000000000e+00  -2.6544434516934173e-01 2.7662654030123485e-02 0.0000000000000000e+00  -2.0909395648306811e-01 -9.8253552771852673e-02 0.0000000000000000e+00  -9.2014015585456826e-02 -3.0461980975820768e-01 0.0000000000000000e+00  3.9689779310078915e-02 -5.4449690989081279e-01 0.0000000000000000e+00  3.1939482944157649e-01 -6.3057559385197315e-01 0.0000000000000000e+00  0.0000000000000000e+00 0.0000000000000000e+00 0.0000000000000000e+00  0.0000000000000000e+00 0.0000000000000000e+00 0.0000000000000000e+00  -2.2979567190891625e-02 1.1644622655971694e-01 0.0000000000000000e+00  -7.9872359814921717e-02 1.6833902396989764e-01 0.0000000000000000e+00  -1.8679971272959020e-01 1.7890061270562591e-01 0.0000000000000000e+00  -2.8083212695613363e-01 1.2775959868213579e-01 0.0000000000000000e+00  0.0000000000000000e+00 0.0000000000000000e+00 0.0000000000000000e+00  0.0000000000000000e+00 0.0000000000000000e+00 0.0000000000000000e+00  0.0000000000000000e+00 0.0000000000000000e+00 0.0000000000000000e+00  0.0000000000000000e+00 0.0000000000000000e+00 0.0000000000000000e+00  0.0000000000000000e+00 0.0000000000000000e+00 0.0000000000000000e+00  0.0000000000000000e+00 0.0000000000000000e+00 0.0000000000000000e+00  </DataArray> 
</PointData> 
</Piece>
</UnstructuredGrid>
</VTKFile>