<?xml version="1.0"?>
<VTKFile type="UnstructuredGrid"  version="0.1"  >
<UnstructuredGrid>
<Piece  NumberOfPoints="121" NumberOfCells="200">
<Points>
<DataArray  type="Float64"  NumberOfComponents="3"  format="ascii">0 0 0  0.1 0 0  0.2 0 0  0.3 0 0  0.4 0 0  0.5 0 0  0.6 0 0  0.7 0 0  0.8 0 0  0.9 0 0  1 0 0  0 0.1 0  0.1 0.1 0  0.2 0.1 0  0.3 0.1 0  0.4 0.1 0  0.5 0.1 0  0.6 0.1 0  0.7 0.1 0  0.8 0.1 0  0.9 0.1 0  1 0.1 0  0 0.2 0  0.1 0.2 0  0.2 0.2 0  0.3 0.2 0  0.4 0.2 0  0.5 0.2 0  0.6 0.2 0  0.7 0.2 0  0.8 0.2 0  0.9 0.2 0  1 0.2 0  0 0.3 0  0.1 0.3 0  0.2 0.3 0  0.3 0.3 0  0.4 0.3 0  0.5 0.3 0  0.6 0.3 0  0.7 0.3 0  0.8 0.3 0  0.9 0.3 0  1 0.3 0  0 0.4 0  0.1 0.4 0  0.2 0.4 0  0.3 0.4 0  0.4 0.4 0  0.5 0.4 0  0.6 0.4 0  0.7 0.4 0  0.8 0.4 0  0.9 0.4 0  1 0.4 0  0 0.5 0  0.1 0.5 0  0.2 0.5 0  0.3 0.5 0  0.4 0.5 0  0.5 0.5 0  0.6 0.5 0  0.7 0.5 0  0.8 0.5 0  0.9 0.5 0  1 0.5 0  0 0.6 0  0.1 0.6 0  0.2 0.6 0  0.3 0.6 0  0.4 0.6 0  0.5 0.6 0  0.6 0.6 0  0.7 0.6 0  0.8 0.6 0  0.9 0.6 0  1 0.6 0  0 0.7 0  0.1 0.7 0  0.2 0.7 0  0.3 0.7 0  0.4 0.7 0  0.5 0.7 0  0.6 0.7 0  0.7 0.7 0  0.8 0.7 0  0.9 0.7 0  1 0.7 0  0 0.8 0  0.1 0.8 0  0.2 0.8 0  0.3 0.8 0  0.4 0.8 0  0.5 0.8 0  0.6 0.8 0  0.7 0.8 0  0.8 0.8 0  0.9 0.8 0  1 0.8 0  0 0.9 0  0.1 0.9 0  0.2 0.9 0  0.3 0.9 0  0.4 0.9 0  0.5 0.9 0  0.6 0.9 0  0.7 0.9 0  0.8 0.9 0  0.9 0.9 0  1 0.9 0  0 1 0  0.1 1 0  0.2 1 0  0.3 1 0  0.4 1 0  0.5 1 0  0.6 1 0  0.7 1 0  0.8 1 0  0.9 1 0  1 1 0  </DataArray>
</Points>
<Cells>
<DataArray  type="UInt32"  Name="connectivity"  format="ascii">0 1 12  0 11 12  1 2 13  1 12 13  2 3 14  2 13 14  3 4 15  3 14 15  4 5 16  4 15 16  5 6 17  5 16 17  6 7 18  6 17 18  7 8 19  7 18 19  8 9 20  8 19 20  9 10 21  9 20 21  11 12 23  11 22 23  12 13 24  12 23 24  13 14 25  13 24 25  14 15 26  14 25 26  15 16 27  15 26 27  16 17 28  16 27 28  17 18 29  17 28 29  18 19 30  18 29 30  19 20 31  19 30 31  20 21 32  20 31 32  22 23 34  22 33 34  23 24 35  23 34 35  24 25 36  24 35 36  25 26 37  25 36 37  26 27 38  26 37 38  27 28 39  27 38 39  28 29 40  28 39 40  29 30 41  29 40 41  30 31 42  30 41 42  31 32 43  31 42 43  33 34 45  33 44 45  34 35 46  34 45 46  35 36 47  35 46 47  36 37 48  36 47 48  37 38 49  37 48 49  38 39 50  38 49 50  39 40 51  39 50 51  40 41 52  40 51 52  41 42 53  41 52 53  42 43 54  42 53 54  44 45 56  44 55 56  45 46 57  45 56 57  46 47 58  46 57 58  47 48 59  47 58 59  48 49 60  48 59 60  49 50 61  49 60 61  50 51 62  50 61 62  51 52 63  51 62 63  52 53 64  52 63 64  53 54 65  53 64 65  55 56 67  55 66 67  56 57 68  56 67 68  57 58 69  57 68 69  58 59 70  58 69 70  59 60 71  59 70 71  60 61 72  60 71 72  61 62 73  61 72 73  62 63 74  62 73 74  63 64 75  63 74 75  64 65 76  64 75 76  66 67 78  66 77 78  67 68 79  67 78 79  68 69 80  68 79 80  69 70 81  69 80 81  70 71 82  70 81 82  71 72 83  71 82 83  72 73 84  72 83 84  73 74 85  73 84 85  74 75 86  74 85 86  75 76 87  75 86 87  77 78 89  77 88 89  78 79 90  78 89 90  79 80 91  79 90 91  80 81 92  80 91 92  81 82 93  81 92 93  82 83 94  82 93 94  83 84 95  83 94 95  84 85 96  84 95 96  85 86 97  85 96 97  86 87 98  86 97 98  88 89 100  88 99 100  89 90 101  89 100 101  90 91 102  90 101 102  91 92 103  91 102 103  92 93 104  92 103 104  93 94 105  93 104 105  94 95 106  94 105 106  95 96 107  95 106 107  96 97 108  96 107 108  97 98 109  97 108 109  99 100 111  99 110 111  100 101 112  100 111 112  101 102 113  101 112 113  102 103 114  102 113 114  103 104 115  103 114 115  104 105 116  104 115 116  105 106 117  105 116 117  106 107 118  106 117 118  107 108 119  107 118 119  108 109 120  108 119 120  </DataArray>
<DataArray  type="UInt32"  Name="offsets"  format="ascii">3 6 9 12 15 18 21 24 27 30 33 36 39 42 45 48 51 54 57 60 63 66 69 72 75 78 81 84 87 90 93 96 99 102 105 108 111 114 117 120 123 126 129 132 135 138 141 144 147 150 153 156 159 162 165 168 171 174 177 180 183 186 189 192 195 198 201 204 207 210 213 216 219 222 225 228 231 234 237 240 243 246 249 252 255 258 261 264 267 270 273 276 279 282 285 288 291 294 297 300 303 306 309 312 315 318 321 324 327 330 333 336 339 342 345 348 351 354 357 360 363 366 369 372 375 378 381 384 387 390 393 396 399 402 405 408 411 414 417 420 423 426 429 432 435 438 441 444 447 450 453 456 459 462 465 468 471 474 477 480 483 486 489 492 495 498 501 504 507 510 513 516 519 522 525 528 531 534 537 540 543 546 549 552 555 558 561 564 567 570 573 576 579 582 585 588 591 594 597 600 </DataArray>
<DataArray  type="UInt8"  Name="types"  format="ascii">5 5 5 5 5 5 5 5 5 5 5 5 5 5 5 5 5 5 5 5 5 5 5 5 5 5 5 5 5 5 5 5 5 5 5 5 5 5 5 5 5 5 5 5 5 5 5 5 5 5 5 5 5 5 5 5 5 5 5 5 5 5 5 5 5 5 5 5 5 5 5 5 5 5 5 5 5 5 5 5 5 5 5 5 5 5 5 5 5 5 5 5 5 5 5 5 5 5 5 5 5 5 5 5 5 5 5 5 5 5 5 5 5 5 5 5 5 5 5 5 5 5 5 5 5 5 5 5 5 5 5 5 5 5 5 5 5 5 5 5 5 5 5 5 5 5 5 5 5 5 5 5 5 5 5 5 5 5 5 5 5 5 5 5 5 5 5 5 5 5 5 5 5 5 5 5 5 5 5 5 5 5 5 5 5 5 5 5 5 5 5 5 5 5 5 5 5 5 5 5 </DataArray>
</Cells>
<PointData  Vectors="f_22"> 
<DataArray  type="Float64"  Name="f_22"  NumberOfComponents="3" format="ascii">0.0000000000000000e+00 0.0000000000000000e+00 0.0000000000000000e+00  0.0000000000000000e+00 0.0000000000000000e+00 0.0000000000000000e+00  0.0000000000000000e+00 0.0000000000000000e+00 0.0000000000000000e+00  0.0000000000000000e+00 0.0000000000000000e+00 0.0000000000000000e+00  0.0000000000000000e+00 0.0000000000000000e+00 0.0000000000000000e+00  0.0000000000000000e+00 0.0000000000000000e+00 0.0000000000000000e+00  0.0000000000000000e+00 0.0000000000000000e+00 0.0000000000000000e+00  0.0000000000000000e+00 0.0000000000000000e+00 0.0000000000000000e+00  0.0000000000000000e+00 0.0000000000000000e+00 0.0000000000000000e+00  0.0000000000000000e+00 0.0000000000000000e+00 0.0000000000000000e+00  0.0000000000000000e+00 0.0000000000000000e+00 0.0000000000000000e+00  0.0000000000000000e+00 0.0000000000000000e+00 0.0000000000000000e+00  -2.0390378926558542e-02 1.9444530681785831e-02 0.0000000000000000e+00  -3.8658408478561383e-02 1.0486803002661867e-02 0.0000000000000000e+00  -4.0424463287313750e-02 1.6531388980375692e-03 0.0000000000000000e+00  -3.1096810222288052e-02 -3.0350614963332362e-03 0.0000000000000000e+00  -1.6191870048414325e-02 -5.7160780251764333e-03 0.0000000000000000e+00  2.8221147038823137e-03 -8.9787504618998471e-03 0.0000000000000000e+00  2.8350293192738990e-02 -1.5038483188029080e-02 0.0000000000000000e+00  6.5747777163444709e-02 -2.5736964466383617e-02 0.0000000000000000e+00  1.2519369627739418e-01 -4.1657821801582395e-02 0.0000000000000000e+00  1.8897328307117939e-01 -5.9246667584534590e-02 0.0000000000000000e+00  0.0000000000000000e+00 0.0000000000000000e+00 0.0000000000000000e+00  -1.6531780207103115e-02 4.1429529470200538e-02 0.0000000000000000e+00  -2.5814714843570723e-02 1.5134623812518615e-02 0.0000000000000000e+00  -1.5901776193233547e-02 -9.8514005622840975e-03 0.0000000000000000e+00  6.1970884585150366e-03 -2.3089884464150518e-02 0.0000000000000000e+00  3.3529952974044104e-02 -2.9753275249684817e-02 0.0000000000000000e+00  6.3019344316727496e-02 -3.6676868754734880e-02 0.0000000000000000e+00  9.5687391204167666e-02 -5.0112260150164699e-02 0.0000000000000000e+00  1.3598916584832008e-01 -7.5078707726585245e-02 0.0000000000000000e+00  1.9366776741541963e-01 -1.1365227187346749e-01 0.0000000000000000e+00  2.5433989682692831e-01 -1.5458361180422941e-01 0.0000000000000000e+00  0.0000000000000000e+00 0.0000000000000000e+00 0.0000000000000000e+00  -1.4019764027470670e-02 5.7241284708805365e-02 0.0000000000000000e+00  -1.9030295804590779e-02 1.1472296570316679e-02 0.0000000000000000e+00  -5.3728852377700927e-03 -2.9889081375649176e-02 0.0000000000000000e+00  1.9223762024450180e-02 -5.0539979434547834e-02 0.0000000000000000e+00  4.6459798748367614e-02 -5.8456677939805655e-02 0.0000000000000000e+00  7.1041914701915843e-02 -6.4557237481467161e-02 0.0000000000000000e+00  9.2540587084555134e-02 -7.9373559929966586e-02 0.0000000000000000e+00  1.1525740253767065e-01 -1.0935015150732059e-01 0.0000000000000000e+00  1.4033800936795213e-01 -1.6115426028093610e-01 0.0000000000000000e+00  1.6477013205831825e-01 -2.2889745175465492e-01 0.0000000000000000e+00  0.0000000000000000e+00 0.0000000000000000e+00 0.0000000000000000e+00  -1.2959693974375981e-02 7.1006615767340020e-02 0.0000000000000000e+00  -1.6100645466938904e-02 6.2543116763689229e-03 0.0000000000000000e+00  -1.0239723431328032e-03 -5.0363921421711394e-02 0.0000000000000000e+00  2.3737694511704748e-02 -7.6632163912569759e-02 0.0000000000000000e+00  4.6972895138828824e-02 -8.1352899640304122e-02 0.0000000000000000e+00  6.0063858135582536e-02 -7.9423966985219446e-02 0.0000000000000000e+00  6.0633966824063232e-02 -8.8071497840637114e-02 0.0000000000000000e+00  6.1222578543685492e-02 -1.1760606403818626e-01 0.0000000000000000e+00  1.5013798300290641e-02 -1.6467515194836105e-01 0.0000000000000000e+00  -2.7918880496022126e-02 -2.1020169421803939e-01 0.0000000000000000e+00  0.0000000000000000e+00 0.0000000000000000e+00 0.0000000000000000e+00  -1.1656877456432076e-02 8.2251307288975464e-02 0.0000000000000000e+00  -1.3398085164382248e-02 -2.3172496719999700e-03 0.0000000000000000e+00  2.5917795908132319e-03 -7.3965792284287318e-02 0.0000000000000000e+00  2.6366612580939846e-02 -1.0250888585704024e-01 0.0000000000000000e+00  4.0574939746167486e-02 -9.4957981200430336e-02 0.0000000000000000e+00  3.5102377903563853e-02 -7.3672804020569943e-02 0.0000000000000000e+00  3.9601052155660441e-04 -6.9132262921960466e-02 0.0000000000000000e+00  -1.0463712434390397e-02 -9.3612082954373566e-02 0.0000000000000000e+00  -1.6879078093905470e-01 -8.7196040136870712e-02 0.0000000000000000e+00  0.0000000000000000e+00 0.0000000000000000e+00 0.0000000000000000e+00  0.0000000000000000e+00 0.0000000000000000e+00 0.0000000000000000e+00  -1.0211208725743723e-02 9.2637182782864813e-02 0.0000000000000000e+00  -1.0651940146449941e-02 -8.8514395100364966e-03 0.0000000000000000e+00  4.4134482642628637e-03 -9.3211419345695767e-02 0.0000000000000000e+00  2.2143637382036764e-02 -1.1908236952395398e-01 0.0000000000000000e+00  1.7149940420473825e-02 -8.7052222738941573e-02 0.0000000000000000e+00  -1.3188379957035992e-02 -3.5369140951188351e-02 0.0000000000000000e+00  -1.0157698463835733e-01 -1.9271993226592284e-02 0.0000000000000000e+00  -9.3155089713749611e-02 -3.0694377183166883e-02 0.0000000000000000e+00  -3.9065445644552199e-01 1.7330260398470774e-02 0.0000000000000000e+00  0.0000000000000000e+00 0.0000000000000000e+00 0.0000000000000000e+00  0.0000000000000000e+00 0.0000000000000000e+00 0.0000000000000000e+00  -7.7696693210366269e-03 1.0000325553572412e-01 0.0000000000000000e+00  -8.0237576517281327e-03 -1.7600820435382240e-02 0.0000000000000000e+00  2.0037290334397754e-03 -1.1170019576242279e-01 0.0000000000000000e+00  6.2990018034135321e-03 -1.2410619667737791e-01 0.0000000000000000e+00  -2.6390202619782997e-02 -4.8644508306856467e-02 0.0000000000000000e+00  -8.2371583670927978e-02 3.9769838760709247e-02 0.0000000000000000e+00  -2.4110097599142399e-01 5.9736500829112506e-02 0.0000000000000000e+00  -1.8029204485454584e-01 7.3157283649847846e-02 0.0000000000000000e+00  -6.3716535613125980e-01 1.0095316187081312e-01 0.0000000000000000e+00  0.0000000000000000e+00 0.0000000000000000e+00 0.0000000000000000e+00  0.0000000000000000e+00 0.0000000000000000e+00 0.0000000000000000e+00  -4.7635271804109883e-03 1.0540745645469886e-01 0.0000000000000000e+00  -4.5730228555529041e-03 -2.1040943209191299e-02 0.0000000000000000e+00  -2.5034388499851246e-03 -1.1622953891244842e-01 0.0000000000000000e+00  -1.7520590073423985e-02 -1.0463355454102830e-01 0.0000000000000000e+00  -7.5447887393867472e-02 2.3251795408580189e-02 0.0000000000000000e+00  -1.5617991184261840e-01 1.4237203620936692e-01 0.0000000000000000e+00  -3.7517159604677153e-01 1.8682741511446690e-01 0.0000000000000000e+00  -2.8197979770666876e-01 2.1306488772862733e-01 0.0000000000000000e+00  -8.7762907457542039e-01 1.3768090493514965e-01 0.0000000000000000e+00  0.0000000000000000e+00 0.0000000000000000e+00 0.0000000000000000e+00  0.0000000000000000e+00 0.0000000000000000e+00 0.0000000000000000e+00  2.3123690880174215e-04 1.0506687771332344e-01 0.0000000000000000e+00  4.5260648166336277e-03 -2.3936290395055283e-02 0.0000000000000000e+00  4.2210147494166385e-03 -1.0845225540110975e-01 0.0000000000000000e+00  -1.7564202404753902e-02 -5.6405221518379518e-02 0.0000000000000000e+00  -8.4222032386450346e-02 1.2949303126899128e-01 0.0000000000000000e+00  -1.7449433242242976e-01 2.6708298234837624e-01 0.0000000000000000e+00  -3.7578612503466924e-01 3.4031127665185695e-01 0.0000000000000000e+00  -4.2025282680687059e-01 3.4160809800979119e-01 0.0000000000000000e+00  -1.0301616238338018e+00 1.2725945146607542e-01 0.0000000000000000e+00  0.0000000000000000e+00 0.0000000000000000e+00 0.0000000000000000e+00  0.0000000000000000e+00 0.0000000000000000e+00 0.0000000000000000e+00  5.1760344380287968e-03 9.6268909367487984e-02 0.0000000000000000e+00  1.3332210277819221e-02 -2.9598174113410876e-02 0.0000000000000000e+00  1.7489087112517988e-02 -1.1153150474482026e-01 0.0000000000000000e+00  6.4256100109367576e-03 -3.6387972776463745e-02 0.0000000000000000e+00  0.0000000000000000e+00 0.0000000000000000e+00 0.0000000000000000e+00  0.0000000000000000e+00 0.0000000000000000e+00 0.0000000000000000e+00  0.0000000000000000e+00 0.0000000000000000e+00 0.0000000000000000e+00  0.0000000000000000e+00 0.0000000000000000e+00 0.0000000000000000e+00  0.0000000000000000e+00 0.0000000000000000e+00 0.0000000000000000e+00  0.0000000000000000e+00 0.0000000000000000e+00 0.0000000000000000e+00  </DataArray> 
</PointData> 
</Piece>
</UnstructuredGrid>
</VTKFile>