<?xml version="1.0"?>
<VTKFile type="UnstructuredGrid"  version="0.1"  >
<UnstructuredGrid>
<Piece  NumberOfPoints="121" NumberOfCells="200">
<Points>
<DataArray  type="Float64"  NumberOfComponents="3"  format="ascii">0 0 0  0.1 0 0  0.2 0 0  0.3 0 0  0.4 0 0  0.5 0 0  0.6 0 0  0.7 0 0  0.8 0 0  0.9 0 0  1 0 0  0 0.1 0  0.1 0.1 0  0.2 0.1 0  0.3 0.1 0  0.4 0.1 0  0.5 0.1 0  0.6 0.1 0  0.7 0.1 0  0.8 0.1 0  0.9 0.1 0  1 0.1 0  0 0.2 0  0.1 0.2 0  0.2 0.2 0  0.3 0.2 0  0.4 0.2 0  0.5 0.2 0  0.6 0.2 0  0.7 0.2 0  0.8 0.2 0  0.9 0.2 0  1 0.2 0  0 0.3 0  0.1 0.3 0  0.2 0.3 0  0.3 0.3 0  0.4 0.3 0  0.5 0.3 0  0.6 0.3 0  0.7 0.3 0  0.8 0.3 0  0.9 0.3 0  1 0.3 0  0 0.4 0  0.1 0.4 0  0.2 0.4 0  0.3 0.4 0  0.4 0.4 0  0.5 0.4 0  0.6 0.4 0  0.7 0.4 0  0.8 0.4 0  0.9 0.4 0  1 0.4 0  0 0.5 0  0.1 0.5 0  0.2 0.5 0  0.3 0.5 0  0.4 0.5 0  0.5 0.5 0  0.6 0.5 0  0.7 0.5 0  0.8 0.5 0  0.9 0.5 0  1 0.5 0  0 0.6 0  0.1 0.6 0  0.2 0.6 0  0.3 0.6 0  0.4 0.6 0  0.5 0.6 0  0.6 0.6 0  0.7 0.6 0  0.8 0.6 0  0.9 0.6 0  1 0.6 0  0 0.7 0  0.1 0.7 0  0.2 0.7 0  0.3 0.7 0  0.4 0.7 0  0.5 0.7 0  0.6 0.7 0  0.7 0.7 0  0.8 0.7 0  0.9 0.7 0  1 0.7 0  0 0.8 0  0.1 0.8 0  0.2 0.8 0  0.3 0.8 0  0.4 0.8 0  0.5 0.8 0  0.6 0.8 0  0.7 0.8 0  0.8 0.8 0  0.9 0.8 0  1 0.8 0  0 0.9 0  0.1 0.9 0  0.2 0.9 0  0.3 0.9 0  0.4 0.9 0  0.5 0.9 0  0.6 0.9 0  0.7 0.9 0  0.8 0.9 0  0.9 0.9 0  1 0.9 0  0 1 0  0.1 1 0  0.2 1 0  0.3 1 0  0.4 1 0  0.5 1 0  0.6 1 0  0.7 1 0  0.8 1 0  0.9 1 0  1 1 0  </DataArray>
</Points>
<Cells>
<DataArray  type="UInt32"  Name="connectivity"  format="ascii">0 1 12  0 11 12  1 2 13  1 12 13  2 3 14  2 13 14  3 4 15  3 14 15  4 5 16  4 15 16  5 6 17  5 16 17  6 7 18  6 17 18  7 8 19  7 18 19  8 9 20  8 19 20  9 10 21  9 20 21  11 12 23  11 22 23  12 13 24  12 23 24  13 14 25  13 24 25  14 15 26  14 25 26  15 16 27  15 26 27  16 17 28  16 27 28  17 18 29  17 28 29  18 19 30  18 29 30  19 20 31  19 30 31  20 21 32  20 31 32  22 23 34  22 33 34  23 24 35  23 34 35  24 25 36  24 35 36  25 26 37  25 36 37  26 27 38  26 37 38  27 28 39  27 38 39  28 29 40  28 39 40  29 30 41  29 40 41  30 31 42  30 41 42  31 32 43  31 42 43  33 34 45  33 44 45  34 35 46  34 45 46  35 36 47  35 46 47  36 37 48  36 47 48  37 38 49  37 48 49  38 39 50  38 49 50  39 40 51  39 50 51  40 41 52  40 51 52  41 42 53  41 52 53  42 43 54  42 53 54  44 45 56  44 55 56  45 46 57  45 56 57  46 47 58  46 57 58  47 48 59  47 58 59  48 49 60  48 59 60  49 50 61  49 60 61  50 51 62  50 61 62  51 52 63  51 62 63  52 53 64  52 63 64  53 54 65  53 64 65  55 56 67  55 66 67  56 57 68  56 67 68  57 58 69  57 68 69  58 59 70  58 69 70  59 60 71  59 70 71  60 61 72  60 71 72  61 62 73  61 72 73  62 63 74  62 73 74  63 64 75  63 74 75  64 65 76  64 75 76  66 67 78  66 77 78  67 68 79  67 78 79  68 69 80  68 79 80  69 70 81  69 80 81  70 71 82  70 81 82  71 72 83  71 82 83  72 73 84  72 83 84  73 74 85  73 84 85  74 75 86  74 85 86  75 76 87  75 86 87  77 78 89  77 88 89  78 79 90  78 89 90  79 80 91  79 90 91  80 81 92  80 91 92  81 82 93  81 92 93  82 83 94  82 93 94  83 84 95  83 94 95  84 85 96  84 95 96  85 86 97  85 96 97  86 87 98  86 97 98  88 89 100  88 99 100  89 90 101  89 100 101  90 91 102  90 101 102  91 92 103  91 102 103  92 93 104  92 103 104  93 94 105  93 104 105  94 95 106  94 105 106  95 96 107  95 106 107  96 97 108  96 107 108  97 98 109  97 108 109  99 100 111  99 110 111  100 101 112  100 111 112  101 102 113  101 112 113  102 103 114  102 113 114  103 104 115  103 114 115  104 105 116  104 115 116  105 106 117  105 116 117  106 107 118  106 117 118  107 108 119  107 118 119  108 109 120  108 119 120  </DataArray>
<DataArray  type="UInt32"  Name="offsets"  format="ascii">3 6 9 12 15 18 21 24 27 30 33 36 39 42 45 48 51 54 57 60 63 66 69 72 75 78 81 84 87 90 93 96 99 102 105 108 111 114 117 120 123 126 129 132 135 138 141 144 147 150 153 156 159 162 165 168 171 174 177 180 183 186 189 192 195 198 201 204 207 210 213 216 219 222 225 228 231 234 237 240 243 246 249 252 255 258 261 264 267 270 273 276 279 282 285 288 291 294 297 300 303 306 309 312 315 318 321 324 327 330 333 336 339 342 345 348 351 354 357 360 363 366 369 372 375 378 381 384 387 390 393 396 399 402 405 408 411 414 417 420 423 426 429 432 435 438 441 444 447 450 453 456 459 462 465 468 471 474 477 480 483 486 489 492 495 498 501 504 507 510 513 516 519 522 525 528 531 534 537 540 543 546 549 552 555 558 561 564 567 570 573 576 579 582 585 588 591 594 597 600 </DataArray>
<DataArray  type="UInt8"  Name="types"  format="ascii">5 5 5 5 5 5 5 5 5 5 5 5 5 5 5 5 5 5 5 5 5 5 5 5 5 5 5 5 5 5 5 5 5 5 5 5 5 5 5 5 5 5 5 5 5 5 5 5 5 5 5 5 5 5 5 5 5 5 5 5 5 5 5 5 5 5 5 5 5 5 5 5 5 5 5 5 5 5 5 5 5 5 5 5 5 5 5 5 5 5 5 5 5 5 5 5 5 5 5 5 5 5 5 5 5 5 5 5 5 5 5 5 5 5 5 5 5 5 5 5 5 5 5 5 5 5 5 5 5 5 5 5 5 5 5 5 5 5 5 5 5 5 5 5 5 5 5 5 5 5 5 5 5 5 5 5 5 5 5 5 5 5 5 5 5 5 5 5 5 5 5 5 5 5 5 5 5 5 5 5 5 5 5 5 5 5 5 5 5 5 5 5 5 5 5 5 5 5 5 5 </DataArray>
</Cells>
<PointData  Vectors="f_22"> 
<DataArray  type="Float64"  Name="f_22"  NumberOfComponents="3" format="ascii">0.0000000000000000e+00 0.0000000000000000e+00 0.0000000000000000e+00  0.0000000000000000e+00 0.0000000000000000e+00 0.0000000000000000e+00  0.0000000000000000e+00 0.0000000000000000e+00 0.0000000000000000e+00  0.0000000000000000e+00 0.0000000000000000e+00 0.0000000000000000e+00  0.0000000000000000e+00 0.0000000000000000e+00 0.0000000000000000e+00  0.0000000000000000e+00 0.0000000000000000e+00 0.0000000000000000e+00  0.0000000000000000e+00 0.0000000000000000e+00 0.0000000000000000e+00  0.0000000000000000e+00 0.0000000000000000e+00 0.0000000000000000e+00  0.0000000000000000e+00 0.0000000000000000e+00 0.0000000000000000e+00  0.0000000000000000e+00 0.0000000000000000e+00 0.0000000000000000e+00  0.0000000000000000e+00 0.0000000000000000e+00 0.0000000000000000e+00  0.0000000000000000e+00 0.0000000000000000e+00 0.0000000000000000e+00  -1.6606449250792979e-02 1.6204880859190862e-02 0.0000000000000000e+00  -4.6853671140026719e-02 1.7495402328307499e-02 0.0000000000000000e+00  -7.1840976040761423e-02 1.2763259565665635e-02 0.0000000000000000e+00  -8.8765796787252521e-02 9.3974904592287294e-03 0.0000000000000000e+00  -1.0111245878769823e-01 7.1719476837948989e-03 0.0000000000000000e+00  -1.0865264524176800e-01 4.4158668602932048e-03 0.0000000000000000e+00  -1.0940522493492272e-01 -1.6506333689269858e-03 0.0000000000000000e+00  -9.6835727234245397e-02 -1.4490456229996632e-02 0.0000000000000000e+00  -5.1901311982901793e-02 -3.4123709603846621e-02 0.0000000000000000e+00  -1.5117263019509383e-02 -5.2880070550877789e-02 0.0000000000000000e+00  0.0000000000000000e+00 0.0000000000000000e+00 0.0000000000000000e+00  -2.1336747027477454e-02 4.8523079624320134e-02 0.0000000000000000e+00  -5.5690332225937590e-02 4.7918325714564662e-02 0.0000000000000000e+00  -8.0319283983969272e-02 3.2781470581209740e-02 0.0000000000000000e+00  -9.3653747798061085e-02 2.1889891845143946e-02 0.0000000000000000e+00  -1.0274895938810942e-01 1.5130302638536708e-02 0.0000000000000000e+00  -1.0509396368748433e-01 8.3533562709399017e-03 0.0000000000000000e+00  -1.0992047874746654e-01 -7.1817639505065466e-03 0.0000000000000000e+00  -9.8563730588249299e-02 -3.5917647430751570e-02 0.0000000000000000e+00  -8.2651944590436843e-02 -7.6476217494886436e-02 0.0000000000000000e+00  -6.9233848142416690e-02 -1.0872052512600268e-01 0.0000000000000000e+00  0.0000000000000000e+00 0.0000000000000000e+00 0.0000000000000000e+00  -1.9386761307603948e-02 8.1414575966819003e-02 0.0000000000000000e+00  -5.0097685059146690e-02 7.6775831836356806e-02 0.0000000000000000e+00  -7.0803360354836822e-02 4.9233948902474040e-02 0.0000000000000000e+00  -8.0292674773648778e-02 3.0680054371014096e-02 0.0000000000000000e+00  -9.0703388834604881e-02 2.1722830731480579e-02 0.0000000000000000e+00  -9.3364413965174933e-02 1.5934702369578842e-02 0.0000000000000000e+00  -1.2497637708148193e-01 2.0641535384562036e-04 0.0000000000000000e+00  -1.2571376514652255e-01 -2.0296547407683396e-02 0.0000000000000000e+00  -2.0802855517835325e-01 -6.1914280913042102e-02 0.0000000000000000e+00  -2.2892048066217294e-01 -1.0788842352276914e-01 0.0000000000000000e+00  0.0000000000000000e+00 0.0000000000000000e+00 0.0000000000000000e+00  -1.8420058825833134e-02 1.1155827613933952e-01 0.0000000000000000e+00  -4.7039197894530010e-02 1.0245160879957191e-01 0.0000000000000000e+00  -6.6931186326490838e-02 6.3239230837461261e-02 0.0000000000000000e+00  -7.6192948292971435e-02 3.9774124640617900e-02 0.0000000000000000e+00  -9.5237281475674507e-02 3.3401176894513891e-02 0.0000000000000000e+00  -1.0108746850753680e-01 3.5166218433705501e-02 0.0000000000000000e+00  -1.6981455989675173e-01 3.4180230176570216e-02 0.0000000000000000e+00  -1.6045787363651159e-01 4.7270692243519860e-02 0.0000000000000000e+00  -3.7660987445705629e-01 9.2967508899504375e-03 0.0000000000000000e+00  -3.6232310789018918e-01 -4.7346768692883907e-02 0.0000000000000000e+00  0.0000000000000000e+00 0.0000000000000000e+00 0.0000000000000000e+00  -1.8934758739822314e-02 1.4112119185347960e-01 0.0000000000000000e+00  -4.7723531279725603e-02 1.2759064271563084e-01 0.0000000000000000e+00  -6.9817523041473276e-02 7.8447674225227193e-02 0.0000000000000000e+00  -8.2403068742598604e-02 5.4288110614941092e-02 0.0000000000000000e+00  -1.1773190888644391e-01 5.5678701729006803e-02 0.0000000000000000e+00  -1.2580228143950686e-01 6.8589989223849693e-02 0.0000000000000000e+00  -2.3083005146530616e-01 8.4236639811200525e-02 0.0000000000000000e+00  -1.7185216928747352e-01 1.1471996001819212e-01 0.0000000000000000e+00  -4.3351216899841677e-01 8.7776283206097858e-02 0.0000000000000000e+00  0.0000000000000000e+00 0.0000000000000000e+00 0.0000000000000000e+00  0.0000000000000000e+00 0.0000000000000000e+00 0.0000000000000000e+00  -2.0272790702420242e-02 1.7187079860431198e-01 0.0000000000000000e+00  -5.1517179576856843e-02 1.5479258953575081e-01 0.0000000000000000e+00  -7.9823397847978927e-02 9.9239149678589267e-02 0.0000000000000000e+00  -1.0251175775662556e-01 8.0344437762804838e-02 0.0000000000000000e+00  -1.6179149177184265e-01 9.4494365821507303e-02 0.0000000000000000e+00  -1.7297022354318053e-01 1.1733727993163387e-01 0.0000000000000000e+00  -3.1651367123738527e-01 1.3912296085811035e-01 0.0000000000000000e+00  -2.0413136222616035e-01 1.5925646181011344e-01 0.0000000000000000e+00  -4.8631365305981816e-01 8.8930880165954393e-02 0.0000000000000000e+00  0.0000000000000000e+00 0.0000000000000000e+00 0.0000000000000000e+00  0.0000000000000000e+00 0.0000000000000000e+00 0.0000000000000000e+00  -2.1611816403177487e-02 2.0492812081696338e-01 0.0000000000000000e+00  -5.7922380991256080e-02 1.8748456757981208e-01 0.0000000000000000e+00  -9.7246748668063973e-02 1.3260071796010581e-01 0.0000000000000000e+00  -1.4146263402467402e-01 1.2628478711121038e-01 0.0000000000000000e+00  -2.2693105040850164e-01 1.5551693186546528e-01 0.0000000000000000e+00  -2.5228794452681230e-01 1.8196431804190388e-01 0.0000000000000000e+00  -4.2314128984062355e-01 2.0010926124464842e-01 0.0000000000000000e+00  -2.6597590456114151e-01 1.7621902635979317e-01 0.0000000000000000e+00  -5.8115110851052321e-01 7.2775471808172773e-02 0.0000000000000000e+00  0.0000000000000000e+00 0.0000000000000000e+00 0.0000000000000000e+00  0.0000000000000000e+00 0.0000000000000000e+00 0.0000000000000000e+00  -2.1168439306443458e-02 2.3962585629639599e-01 0.0000000000000000e+00  -6.2613373130022437e-02 2.2912648819641077e-01 0.0000000000000000e+00  -1.1457082888163723e-01 1.8820988100352887e-01 0.0000000000000000e+00  -1.9715200864295596e-01 2.0322859661553822e-01 0.0000000000000000e+00  -3.0293782693752025e-01 2.4213014864609658e-01 0.0000000000000000e+00  -3.6211314358063668e-01 2.6503023821586680e-01 0.0000000000000000e+00  -5.1190127327787482e-01 2.6265987926305367e-01 0.0000000000000000e+00  -3.6632685922980357e-01 1.5531111627158442e-01 0.0000000000000000e+00  -6.4013216310325161e-01 3.8073826139156212e-02 0.0000000000000000e+00  0.0000000000000000e+00 0.0000000000000000e+00 0.0000000000000000e+00  0.0000000000000000e+00 0.0000000000000000e+00 0.0000000000000000e+00  -1.6791559269225112e-02 2.7103736581461718e-01 0.0000000000000000e+00  -5.3883986411088852e-02 2.7685298599314817e-01 0.0000000000000000e+00  -1.1104163177229616e-01 2.6606974069680234e-01 0.0000000000000000e+00  -2.3492383411126530e-01 3.0516254599857590e-01 0.0000000000000000e+00  -3.3793486488498431e-01 3.3253025303057077e-01 0.0000000000000000e+00  -4.4137938116788961e-01 3.5257726179196497e-01 0.0000000000000000e+00  -5.4950938245375658e-01 2.9919719463673944e-01 0.0000000000000000e+00  -4.8424003661726928e-01 8.8188333863966101e-02 0.0000000000000000e+00  -5.8300550526411765e-01 -2.9761788654630687e-02 0.0000000000000000e+00  0.0000000000000000e+00 0.0000000000000000e+00 0.0000000000000000e+00  0.0000000000000000e+00 0.0000000000000000e+00 0.0000000000000000e+00  -9.0353369057096823e-03 2.8770049674513720e-01 0.0000000000000000e+00  -3.1155590254227327e-02 3.0781973904269250e-01 0.0000000000000000e+00  -8.4403128416115303e-02 3.3188743466910714e-01 0.0000000000000000e+00  -2.4743232353387312e-01 4.8605288230551924e-01 0.0000000000000000e+00  0.0000000000000000e+00 0.0000000000000000e+00 0.0000000000000000e+00  0.0000000000000000e+00 0.0000000000000000e+00 0.0000000000000000e+00  0.0000000000000000e+00 0.0000000000000000e+00 0.0000000000000000e+00  0.0000000000000000e+00 0.0000000000000000e+00 0.0000000000000000e+00  0.0000000000000000e+00 0.0000000000000000e+00 0.0000000000000000e+00  0.0000000000000000e+00 0.0000000000000000e+00 0.0000000000000000e+00  </DataArray> 
</PointData> 
</Piece>
</UnstructuredGrid>
</VTKFile>