<?xml version="1.0"?>
<VTKFile type="UnstructuredGrid"  version="0.1"  >
<UnstructuredGrid>
<Piece  NumberOfPoints="121" NumberOfCells="200">
<Points>
<DataArray  type="Float64"  NumberOfComponents="3"  format="ascii">0 0 0  0.1 0 0  0.2 0 0  0.3 0 0  0.4 0 0  0.5 0 0  0.6 0 0  0.7 0 0  0.8 0 0  0.9 0 0  1 0 0  0 0.1 0  0.1 0.1 0  0.2 0.1 0  0.3 0.1 0  0.4 0.1 0  0.5 0.1 0  0.6 0.1 0  0.7 0.1 0  0.8 0.1 0  0.9 0.1 0  1 0.1 0  0 0.2 0  0.1 0.2 0  0.2 0.2 0  0.3 0.2 0  0.4 0.2 0  0.5 0.2 0  0.6 0.2 0  0.7 0.2 0  0.8 0.2 0  0.9 0.2 0  1 0.2 0  0 0.3 0  0.1 0.3 0  0.2 0.3 0  0.3 0.3 0  0.4 0.3 0  0.5 0.3 0  0.6 0.3 0  0.7 0.3 0  0.8 0.3 0  0.9 0.3 0  1 0.3 0  0 0.4 0  0.1 0.4 0  0.2 0.4 0  0.3 0.4 0  0.4 0.4 0  0.5 0.4 0  0.6 0.4 0  0.7 0.4 0  0.8 0.4 0  0.9 0.4 0  1 0.4 0  0 0.5 0  0.1 0.5 0  0.2 0.5 0  0.3 0.5 0  0.4 0.5 0  0.5 0.5 0  0.6 0.5 0  0.7 0.5 0  0.8 0.5 0  0.9 0.5 0  1 0.5 0  0 0.6 0  0.1 0.6 0  0.2 0.6 0  0.3 0.6 0  0.4 0.6 0  0.5 0.6 0  0.6 0.6 0  0.7 0.6 0  0.8 0.6 0  0.9 0.6 0  1 0.6 0  0 0.7 0  0.1 0.7 0  0.2 0.7 0  0.3 0.7 0  0.4 0.7 0  0.5 0.7 0  0.6 0.7 0  0.7 0.7 0  0.8 0.7 0  0.9 0.7 0  1 0.7 0  0 0.8 0  0.1 0.8 0  0.2 0.8 0  0.3 0.8 0  0.4 0.8 0  0.5 0.8 0  0.6 0.8 0  0.7 0.8 0  0.8 0.8 0  0.9 0.8 0  1 0.8 0  0 0.9 0  0.1 0.9 0  0.2 0.9 0  0.3 0.9 0  0.4 0.9 0  0.5 0.9 0  0.6 0.9 0  0.7 0.9 0  0.8 0.9 0  0.9 0.9 0  1 0.9 0  0 1 0  0.1 1 0  0.2 1 0  0.3 1 0  0.4 1 0  0.5 1 0  0.6 1 0  0.7 1 0  0.8 1 0  0.9 1 0  1 1 0  </DataArray>
</Points>
<Cells>
<DataArray  type="UInt32"  Name="connectivity"  format="ascii">0 1 12  0 11 12  1 2 13  1 12 13  2 3 14  2 13 14  3 4 15  3 14 15  4 5 16  4 15 16  5 6 17  5 16 17  6 7 18  6 17 18  7 8 19  7 18 19  8 9 20  8 19 20  9 10 21  9 20 21  11 12 23  11 22 23  12 13 24  12 23 24  13 14 25  13 24 25  14 15 26  14 25 26  15 16 27  15 26 27  16 17 28  16 27 28  17 18 29  17 28 29  18 19 30  18 29 30  19 20 31  19 30 31  20 21 32  20 31 32  22 23 34  22 33 34  23 24 35  23 34 35  24 25 36  24 35 36  25 26 37  25 36 37  26 27 38  26 37 38  27 28 39  27 38 39  28 29 40  28 39 40  29 30 41  29 40 41  30 31 42  30 41 42  31 32 43  31 42 43  33 34 45  33 44 45  34 35 46  34 45 46  35 36 47  35 46 47  36 37 48  36 47 48  37 38 49  37 48 49  38 39 50  38 49 50  39 40 51  39 50 51  40 41 52  40 51 52  41 42 53  41 52 53  42 43 54  42 53 54  44 45 56  44 55 56  45 46 57  45 56 57  46 47 58  46 57 58  47 48 59  47 58 59  48 49 60  48 59 60  49 50 61  49 60 61  50 51 62  50 61 62  51 52 63  51 62 63  52 53 64  52 63 64  53 54 65  53 64 65  55 56 67  55 66 67  56 57 68  56 67 68  57 58 69  57 68 69  58 59 70  58 69 70  59 60 71  59 70 71  60 61 72  60 71 72  61 62 73  61 72 73  62 63 74  62 73 74  63 64 75  63 74 75  64 65 76  64 75 76  66 67 78  66 77 78  67 68 79  67 78 79  68 69 80  68 79 80  69 70 81  69 80 81  70 71 82  70 81 82  71 72 83  71 82 83  72 73 84  72 83 84  73 74 85  73 84 85  74 75 86  74 85 86  75 76 87  75 86 87  77 78 89  77 88 89  78 79 90  78 89 90  79 80 91  79 90 91  80 81 92  80 91 92  81 82 93  81 92 93  82 83 94  82 93 94  83 84 95  83 94 95  84 85 96  84 95 96  85 86 97  85 96 97  86 87 98  86 97 98  88 89 100  88 99 100  89 90 101  89 100 101  90 91 102  90 101 102  91 92 103  91 102 103  92 93 104  92 103 104  93 94 105  93 104 105  94 95 106  94 105 106  95 96 107  95 106 107  96 97 108  96 107 108  97 98 109  97 108 109  99 100 111  99 110 111  100 101 112  100 111 112  101 102 113  101 112 113  102 103 114  102 113 114  103 104 115  103 114 115  104 105 116  104 115 116  105 106 117  105 116 117  106 107 118  106 117 118  107 108 119  107 118 119  108 109 120  108 119 120  </DataArray>
<DataArray  type="UInt32"  Name="offsets"  format="ascii">3 6 9 12 15 18 21 24 27 30 33 36 39 42 45 48 51 54 57 60 63 66 69 72 75 78 81 84 87 90 93 96 99 102 105 108 111 114 117 120 123 126 129 132 135 138 141 144 147 150 153 156 159 162 165 168 171 174 177 180 183 186 189 192 195 198 201 204 207 210 213 216 219 222 225 228 231 234 237 240 243 246 249 252 255 258 261 264 267 270 273 276 279 282 285 288 291 294 297 300 303 306 309 312 315 318 321 324 327 330 333 336 339 342 345 348 351 354 357 360 363 366 369 372 375 378 381 384 387 390 393 396 399 402 405 408 411 414 417 420 423 426 429 432 435 438 441 444 447 450 453 456 459 462 465 468 471 474 477 480 483 486 489 492 495 498 501 504 507 510 513 516 519 522 525 528 531 534 537 540 543 546 549 552 555 558 561 564 567 570 573 576 579 582 585 588 591 594 597 600 </DataArray>
<DataArray  type="UInt8"  Name="types"  format="ascii">5 5 5 5 5 5 5 5 5 5 5 5 5 5 5 5 5 5 5 5 5 5 5 5 5 5 5 5 5 5 5 5 5 5 5 5 5 5 5 5 5 5 5 5 5 5 5 5 5 5 5 5 5 5 5 5 5 5 5 5 5 5 5 5 5 5 5 5 5 5 5 5 5 5 5 5 5 5 5 5 5 5 5 5 5 5 5 5 5 5 5 5 5 5 5 5 5 5 5 5 5 5 5 5 5 5 5 5 5 5 5 5 5 5 5 5 5 5 5 5 5 5 5 5 5 5 5 5 5 5 5 5 5 5 5 5 5 5 5 5 5 5 5 5 5 5 5 5 5 5 5 5 5 5 5 5 5 5 5 5 5 5 5 5 5 5 5 5 5 5 5 5 5 5 5 5 5 5 5 5 5 5 5 5 5 5 5 5 5 5 5 5 5 5 5 5 5 5 5 5 </DataArray>
</Cells>
<PointData  Vectors="f_22"> 
<DataArray  type="Float64"  Name="f_22"  NumberOfComponents="3" format="ascii">0.0000000000000000e+00 0.0000000000000000e+00 0.0000000000000000e+00  0.0000000000000000e+00 0.0000000000000000e+00 0.0000000000000000e+00  0.0000000000000000e+00 0.0000000000000000e+00 0.0000000000000000e+00  0.0000000000000000e+00 0.0000000000000000e+00 0.0000000000000000e+00  0.0000000000000000e+00 0.0000000000000000e+00 0.0000000000000000e+00  0.0000000000000000e+00 0.0000000000000000e+00 0.0000000000000000e+00  0.0000000000000000e+00 0.0000000000000000e+00 0.0000000000000000e+00  0.0000000000000000e+00 0.0000000000000000e+00 0.0000000000000000e+00  0.0000000000000000e+00 0.0000000000000000e+00 0.0000000000000000e+00  0.0000000000000000e+00 0.0000000000000000e+00 0.0000000000000000e+00  0.0000000000000000e+00 0.0000000000000000e+00 0.0000000000000000e+00  0.0000000000000000e+00 0.0000000000000000e+00 0.0000000000000000e+00  -6.5102384981976114e-03 6.1597061379342136e-03 0.0000000000000000e+00  -2.4027901182025496e-02 9.0020879105682152e-03 0.0000000000000000e+00  -3.9414334412018262e-02 5.7430412498375473e-03 0.0000000000000000e+00  -4.8395248110897314e-02 3.1636959876249295e-03 0.0000000000000000e+00  -5.4145467794725920e-02 1.6092637993923298e-03 0.0000000000000000e+00  -5.5660444038152235e-02 -3.7498213377890603e-04 0.0000000000000000e+00  -5.2151853308460568e-02 -5.3451339191245457e-03 0.0000000000000000e+00  -3.6292471585719036e-02 -1.6511839409694577e-02 0.0000000000000000e+00  4.9716319688567490e-03 -3.2282073070732067e-02 0.0000000000000000e+00  3.6486350085184222e-02 -4.7945033271353799e-02 0.0000000000000000e+00  0.0000000000000000e+00 0.0000000000000000e+00 0.0000000000000000e+00  -1.2251286110602380e-02 2.5846290268011874e-02 0.0000000000000000e+00  -3.6436893925903296e-02 2.9909516555874271e-02 0.0000000000000000e+00  -5.4596344434595462e-02 1.8739142113668970e-02 0.0000000000000000e+00  -6.2814142315068933e-02 9.8410990247187052e-03 0.0000000000000000e+00  -6.8107999079793383e-02 4.5840200969087964e-03 0.0000000000000000e+00  -6.6600461549341280e-02 -5.7332218783148780e-04 0.0000000000000000e+00  -6.9696518839015023e-02 -1.3754368705378420e-02 0.0000000000000000e+00  -5.8108786822639237e-02 -3.7529462431549351e-02 0.0000000000000000e+00  -4.9102000086463829e-02 -6.7763541022195672e-02 0.0000000000000000e+00  -4.1965222865464724e-02 -9.1709440430062947e-02 0.0000000000000000e+00  0.0000000000000000e+00 0.0000000000000000e+00 0.0000000000000000e+00  -1.1250285818749928e-02 4.8025446111572487e-02 0.0000000000000000e+00  -3.3189377368095824e-02 5.1354897081236146e-02 0.0000000000000000e+00  -4.8260777179770890e-02 3.0065117138679334e-02 0.0000000000000000e+00  -5.3022610667759720e-02 1.4397044716009806e-02 0.0000000000000000e+00  -5.9534791201994092e-02 7.5506205842763418e-03 0.0000000000000000e+00  -5.9166653912819750e-02 4.2495045979560487e-03 0.0000000000000000e+00  -8.8198823446327929e-02 -5.7348426029794272e-03 0.0000000000000000e+00  -9.6018558431873610e-02 -1.9253340519773482e-02 0.0000000000000000e+00  -1.7280097307801251e-01 -5.0237050797615951e-02 0.0000000000000000e+00  -1.9214758168287993e-01 -8.2589121933822104e-02 0.0000000000000000e+00  0.0000000000000000e+00 0.0000000000000000e+00 0.0000000000000000e+00  -1.0374617439501202e-02 6.8109318931814586e-02 0.0000000000000000e+00  -3.0306625773609201e-02 7.0102410941224949e-02 0.0000000000000000e+00  -4.4373311396255243e-02 3.9008396580373965e-02 0.0000000000000000e+00  -4.8837122232162383e-02 1.8911026568604099e-02 0.0000000000000000e+00  -6.1993567376159790e-02 1.4836875769914467e-02 0.0000000000000000e+00  -6.5850356200537599e-02 2.0155747489884582e-02 0.0000000000000000e+00  -1.2354520789240407e-01 2.9546836826744891e-02 0.0000000000000000e+00  -1.3267201267245798e-01 4.3344080097231889e-02 0.0000000000000000e+00  -2.9315238767723995e-01 1.0665163683995640e-02 0.0000000000000000e+00  -2.8421539665534590e-01 -3.0348250649864190e-02 0.0000000000000000e+00  0.0000000000000000e+00 0.0000000000000000e+00 0.0000000000000000e+00  -1.1348132233929574e-02 8.7951038211570479e-02 0.0000000000000000e+00  -3.2050219607525798e-02 8.8451575344460714e-02 0.0000000000000000e+00  -4.8537857016252760e-02 4.9070722714830858e-02 0.0000000000000000e+00  -5.6755484197979968e-02 2.8038166595456576e-02 0.0000000000000000e+00  -8.1751781780033284e-02 3.0247651048486108e-02 0.0000000000000000e+00  -8.9202867226345239e-02 4.6374782708920363e-02 0.0000000000000000e+00  -1.6153488737894767e-01 7.3530546067565400e-02 0.0000000000000000e+00  -1.2933448719843782e-01 9.5837180307424288e-02 0.0000000000000000e+00  -2.8250406372824305e-01 6.3077828288545829e-02 0.0000000000000000e+00  0.0000000000000000e+00 0.0000000000000000e+00 0.0000000000000000e+00  0.0000000000000000e+00 0.0000000000000000e+00 0.0000000000000000e+00  -1.4002231770510132e-02 1.1027700583101643e-01 0.0000000000000000e+00  -3.8892171516234163e-02 1.0980337207978710e-01 0.0000000000000000e+00  -6.2415148222025763e-02 6.5021142926844383e-02 0.0000000000000000e+00  -8.1284970477150165e-02 4.7298171135407165e-02 0.0000000000000000e+00  -1.2308873915086511e-01 5.7659611116671068e-02 0.0000000000000000e+00  -1.3576768395673494e-01 8.0072140868796826e-02 0.0000000000000000e+00  -2.1328075124533524e-01 1.0537269874392340e-01 0.0000000000000000e+00  -1.3751840159850687e-01 1.0797483613894740e-01 0.0000000000000000e+00  -2.6747298249362805e-01 5.0208634807113656e-02 0.0000000000000000e+00  0.0000000000000000e+00 0.0000000000000000e+00 0.0000000000000000e+00  0.0000000000000000e+00 0.0000000000000000e+00 0.0000000000000000e+00  -1.7763819075587734e-02 1.3764972255597785e-01 0.0000000000000000e+00  -5.1122622864479980e-02 1.3858706691090616e-01 0.0000000000000000e+00  -8.7360245321333380e-02 9.4003845253495213e-02 0.0000000000000000e+00  -1.2772993888411635e-01 8.4499870764865884e-02 0.0000000000000000e+00  -1.8856284091400971e-01 1.0143966460901058e-01 0.0000000000000000e+00  -2.1522496869527247e-01 1.1895701300441397e-01 0.0000000000000000e+00  -2.8567379257919928e-01 1.2241970303474237e-01 0.0000000000000000e+00  -1.8252927084878331e-01 8.3065700327197567e-02 0.0000000000000000e+00  -2.9300641575352254e-01 2.0722737142543874e-02 0.0000000000000000e+00  0.0000000000000000e+00 0.0000000000000000e+00 0.0000000000000000e+00  0.0000000000000000e+00 0.0000000000000000e+00 0.0000000000000000e+00  -2.1083139302027706e-02 1.7127495969829951e-01 0.0000000000000000e+00  -6.5643005889877690e-02 1.8026823400038017e-01 0.0000000000000000e+00  -1.1863485475554601e-01 1.4732351268988761e-01 0.0000000000000000e+00  -1.9804698907420201e-01 1.4845333617688114e-01 0.0000000000000000e+00  -2.7518538502363638e-01 1.6017327209634882e-01 0.0000000000000000e+00  -3.1843606545588110e-01 1.6084604696587315e-01 0.0000000000000000e+00  -3.5109572642789705e-01 1.2602219389291025e-01 0.0000000000000000e+00  -2.5751440024363992e-01 1.9560872811450299e-02 0.0000000000000000e+00  -2.7657053908239015e-01 -3.8772442390279771e-02 0.0000000000000000e+00  0.0000000000000000e+00 0.0000000000000000e+00 0.0000000000000000e+00  0.0000000000000000e+00 0.0000000000000000e+00 0.0000000000000000e+00  -2.1118180345735205e-02 2.0842273637870826e-01 0.0000000000000000e+00  -7.0446394183443672e-02 2.3686007976134488e-01 0.0000000000000000e+00  -1.3915929995286686e-01 2.2805450506564340e-01 0.0000000000000000e+00  -2.7352446079551573e-01 2.4869791557097057e-01 0.0000000000000000e+00  -3.5555179004938164e-01 2.4733099695183236e-01 0.0000000000000000e+00  -3.9420295225434643e-01 2.0296605816020774e-01 0.0000000000000000e+00  -3.6140190007000239e-01 6.1973734992083612e-02 0.0000000000000000e+00  -2.5764514740070676e-01 -1.5088662885923879e-01 0.0000000000000000e+00  -1.0900774128406325e-01 -1.9751249133214932e-01 0.0000000000000000e+00  0.0000000000000000e+00 0.0000000000000000e+00 0.0000000000000000e+00  0.0000000000000000e+00 0.0000000000000000e+00 0.0000000000000000e+00  -1.6380013246652617e-02 2.3535605512370206e-01 0.0000000000000000e+00  -5.7416572351428823e-02 2.8352293151478064e-01 0.0000000000000000e+00  -1.4651115534643405e-01 3.1611551748035321e-01 0.0000000000000000e+00  -3.1631979906700275e-01 3.8012864987995210e-01 0.0000000000000000e+00  0.0000000000000000e+00 0.0000000000000000e+00 0.0000000000000000e+00  0.0000000000000000e+00 0.0000000000000000e+00 0.0000000000000000e+00  0.0000000000000000e+00 0.0000000000000000e+00 0.0000000000000000e+00  0.0000000000000000e+00 0.0000000000000000e+00 0.0000000000000000e+00  0.0000000000000000e+00 0.0000000000000000e+00 0.0000000000000000e+00  0.0000000000000000e+00 0.0000000000000000e+00 0.0000000000000000e+00  </DataArray> 
</PointData> 
</Piece>
</UnstructuredGrid>
</VTKFile>