<?xml version="1.0"?>
<VTKFile type="UnstructuredGrid"  version="0.1"  >
<UnstructuredGrid>
<Piece  NumberOfPoints="121" NumberOfCells="200">
<Points>
<DataArray  type="Float64"  NumberOfComponents="3"  format="ascii">0 0 0  0.1 0 0  0.2 0 0  0.3 0 0  0.4 0 0  0.5 0 0  0.6 0 0  0.7 0 0  0.8 0 0  0.9 0 0  1 0 0  0 0.1 0  0.1 0.1 0  0.2 0.1 0  0.3 0.1 0  0.4 0.1 0  0.5 0.1 0  0.6 0.1 0  0.7 0.1 0  0.8 0.1 0  0.9 0.1 0  1 0.1 0  0 0.2 0  0.1 0.2 0  0.2 0.2 0  0.3 0.2 0  0.4 0.2 0  0.5 0.2 0  0.6 0.2 0  0.7 0.2 0  0.8 0.2 0  0.9 0.2 0  1 0.2 0  0 0.3 0  0.1 0.3 0  0.2 0.3 0  0.3 0.3 0  0.4 0.3 0  0.5 0.3 0  0.6 0.3 0  0.7 0.3 0  0.8 0.3 0  0.9 0.3 0  1 0.3 0  0 0.4 0  0.1 0.4 0  0.2 0.4 0  0.3 0.4 0  0.4 0.4 0  0.5 0.4 0  0.6 0.4 0  0.7 0.4 0  0.8 0.4 0  0.9 0.4 0  1 0.4 0  0 0.5 0  0.1 0.5 0  0.2 0.5 0  0.3 0.5 0  0.4 0.5 0  0.5 0.5 0  0.6 0.5 0  0.7 0.5 0  0.8 0.5 0  0.9 0.5 0  1 0.5 0  0 0.6 0  0.1 0.6 0  0.2 0.6 0  0.3 0.6 0  0.4 0.6 0  0.5 0.6 0  0.6 0.6 0  0.7 0.6 0  0.8 0.6 0  0.9 0.6 0  1 0.6 0  0 0.7 0  0.1 0.7 0  0.2 0.7 0  0.3 0.7 0  0.4 0.7 0  0.5 0.7 0  0.6 0.7 0  0.7 0.7 0  0.8 0.7 0  0.9 0.7 0  1 0.7 0  0 0.8 0  0.1 0.8 0  0.2 0.8 0  0.3 0.8 0  0.4 0.8 0  0.5 0.8 0  0.6 0.8 0  0.7 0.8 0  0.8 0.8 0  0.9 0.8 0  1 0.8 0  0 0.9 0  0.1 0.9 0  0.2 0.9 0  0.3 0.9 0  0.4 0.9 0  0.5 0.9 0  0.6 0.9 0  0.7 0.9 0  0.8 0.9 0  0.9 0.9 0  1 0.9 0  0 1 0  0.1 1 0  0.2 1 0  0.3 1 0  0.4 1 0  0.5 1 0  0.6 1 0  0.7 1 0  0.8 1 0  0.9 1 0  1 1 0  </DataArray>
</Points>
<Cells>
<DataArray  type="UInt32"  Name="connectivity"  format="ascii">0 1 12  0 11 12  1 2 13  1 12 13  2 3 14  2 13 14  3 4 15  3 14 15  4 5 16  4 15 16  5 6 17  5 16 17  6 7 18  6 17 18  7 8 19  7 18 19  8 9 20  8 19 20  9 10 21  9 20 21  11 12 23  11 22 23  12 13 24  12 23 24  13 14 25  13 24 25  14 15 26  14 25 26  15 16 27  15 26 27  16 17 28  16 27 28  17 18 29  17 28 29  18 19 30  18 29 30  19 20 31  19 30 31  20 21 32  20 31 32  22 23 34  22 33 34  23 24 35  23 34 35  24 25 36  24 35 36  25 26 37  25 36 37  26 27 38  26 37 38  27 28 39  27 38 39  28 29 40  28 39 40  29 30 41  29 40 41  30 31 42  30 41 42  31 32 43  31 42 43  33 34 45  33 44 45  34 35 46  34 45 46  35 36 47  35 46 47  36 37 48  36 47 48  37 38 49  37 48 49  38 39 50  38 49 50  39 40 51  39 50 51  40 41 52  40 51 52  41 42 53  41 52 53  42 43 54  42 53 54  44 45 56  44 55 56  45 46 57  45 56 57  46 47 58  46 57 58  47 48 59  47 58 59  48 49 60  48 59 60  49 50 61  49 60 61  50 51 62  50 61 62  51 52 63  51 62 63  52 53 64  52 63 64  53 54 65  53 64 65  55 56 67  55 66 67  56 57 68  56 67 68  57 58 69  57 68 69  58 59 70  58 69 70  59 60 71  59 70 71  60 61 72  60 71 72  61 62 73  61 72 73  62 63 74  62 73 74  63 64 75  63 74 75  64 65 76  64 75 76  66 67 78  66 77 78  67 68 79  67 78 79  68 69 80  68 79 80  69 70 81  69 80 81  70 71 82  70 81 82  71 72 83  71 82 83  72 73 84  72 83 84  73 74 85  73 84 85  74 75 86  74 85 86  75 76 87  75 86 87  77 78 89  77 88 89  78 79 90  78 89 90  79 80 91  79 90 91  80 81 92  80 91 92  81 82 93  81 92 93  82 83 94  82 93 94  83 84 95  83 94 95  84 85 96  84 95 96  85 86 97  85 96 97  86 87 98  86 97 98  88 89 100  88 99 100  89 90 101  89 100 101  90 91 102  90 101 102  91 92 103  91 102 103  92 93 104  92 103 104  93 94 105  93 104 105  94 95 106  94 105 106  95 96 107  95 106 107  96 97 108  96 107 108  97 98 109  97 108 109  99 100 111  99 110 111  100 101 112  100 111 112  101 102 113  101 112 113  102 103 114  102 113 114  103 104 115  103 114 115  104 105 116  104 115 116  105 106 117  105 116 117  106 107 118  106 117 118  107 108 119  107 118 119  108 109 120  108 119 120  </DataArray>
<DataArray  type="UInt32"  Name="offsets"  format="ascii">3 6 9 12 15 18 21 24 27 30 33 36 39 42 45 48 51 54 57 60 63 66 69 72 75 78 81 84 87 90 93 96 99 102 105 108 111 114 117 120 123 126 129 132 135 138 141 144 147 150 153 156 159 162 165 168 171 174 177 180 183 186 189 192 195 198 201 204 207 210 213 216 219 222 225 228 231 234 237 240 243 246 249 252 255 258 261 264 267 270 273 276 279 282 285 288 291 294 297 300 303 306 309 312 315 318 321 324 327 330 333 336 339 342 345 348 351 354 357 360 363 366 369 372 375 378 381 384 387 390 393 396 399 402 405 408 411 414 417 420 423 426 429 432 435 438 441 444 447 450 453 456 459 462 465 468 471 474 477 480 483 486 489 492 495 498 501 504 507 510 513 516 519 522 525 528 531 534 537 540 543 546 549 552 555 558 561 564 567 570 573 576 579 582 585 588 591 594 597 600 </DataArray>
<DataArray  type="UInt8"  Name="types"  format="ascii">5 5 5 5 5 5 5 5 5 5 5 5 5 5 5 5 5 5 5 5 5 5 5 5 5 5 5 5 5 5 5 5 5 5 5 5 5 5 5 5 5 5 5 5 5 5 5 5 5 5 5 5 5 5 5 5 5 5 5 5 5 5 5 5 5 5 5 5 5 5 5 5 5 5 5 5 5 5 5 5 5 5 5 5 5 5 5 5 5 5 5 5 5 5 5 5 5 5 5 5 5 5 5 5 5 5 5 5 5 5 5 5 5 5 5 5 5 5 5 5 5 5 5 5 5 5 5 5 5 5 5 5 5 5 5 5 5 5 5 5 5 5 5 5 5 5 5 5 5 5 5 5 5 5 5 5 5 5 5 5 5 5 5 5 5 5 5 5 5 5 5 5 5 5 5 5 5 5 5 5 5 5 5 5 5 5 5 5 5 5 5 5 5 5 5 5 5 5 5 5 </DataArray>
</Cells>
<PointData  Vectors="f_22"> 
<DataArray  type="Float64"  Name="f_22"  NumberOfComponents="3" format="ascii">0.0000000000000000e+00 0.0000000000000000e+00 0.0000000000000000e+00  0.0000000000000000e+00 0.0000000000000000e+00 0.0000000000000000e+00  0.0000000000000000e+00 0.0000000000000000e+00 0.0000000000000000e+00  0.0000000000000000e+00 0.0000000000000000e+00 0.0000000000000000e+00  0.0000000000000000e+00 0.0000000000000000e+00 0.0000000000000000e+00  0.0000000000000000e+00 0.0000000000000000e+00 0.0000000000000000e+00  0.0000000000000000e+00 0.0000000000000000e+00 0.0000000000000000e+00  0.0000000000000000e+00 0.0000000000000000e+00 0.0000000000000000e+00  0.0000000000000000e+00 0.0000000000000000e+00 0.0000000000000000e+00  0.0000000000000000e+00 0.0000000000000000e+00 0.0000000000000000e+00  0.0000000000000000e+00 0.0000000000000000e+00 0.0000000000000000e+00  0.0000000000000000e+00 0.0000000000000000e+00 0.0000000000000000e+00  2.5626229287648745e-02 -2.6311301522155002e-02 0.0000000000000000e+00  7.4795966132487804e-02 -3.4953972922637501e-02 0.0000000000000000e+00  1.3069807505286493e-01 -3.6468092267802815e-02 0.0000000000000000e+00  1.8781152296789336e-01 -3.6871709583092438e-02 0.0000000000000000e+00  2.4538320605569575e-01 -3.7064457280548087e-02 0.0000000000000000e+00  3.0297329409989437e-01 -3.6805259387252889e-02 0.0000000000000000e+00  3.5963498270303579e-01 -3.5393167610451630e-02 0.0000000000000000e+00  4.1294816896303660e-01 -3.1776907184521488e-02 0.0000000000000000e+00  4.5836489573402112e-01 -2.5754939985900258e-02 0.0000000000000000e+00  4.8420930687564012e-01 -1.7165683975707623e-02 0.0000000000000000e+00  0.0000000000000000e+00 0.0000000000000000e+00 0.0000000000000000e+00  3.0460659348090318e-02 -7.3199015646041588e-02 0.0000000000000000e+00  8.7280450418434977e-02 -9.4815682626797751e-02 0.0000000000000000e+00  1.5143064262996744e-01 -9.9116862714216519e-02 0.0000000000000000e+00  2.1712291809783518e-01 -1.0025236503770288e-01 0.0000000000000000e+00  2.8365894683402998e-01 -1.0082184236927980e-01 0.0000000000000000e+00  3.5088450257263704e-01 -1.0065353154693366e-01 0.0000000000000000e+00  4.1847416914051316e-01 -9.8608182264652053e-02 0.0000000000000000e+00  4.8552894383305373e-01 -9.2128072500449312e-02 0.0000000000000000e+00  5.4595645228570044e-01 -7.6767348029554705e-02 0.0000000000000000e+00  5.8993958580418238e-01 -5.2855053174000549e-02 0.0000000000000000e+00  0.0000000000000000e+00 0.0000000000000000e+00 0.0000000000000000e+00  3.0312957177682672e-02 -1.2334972441049978e-01 0.0000000000000000e+00  8.7530898766962878e-02 -1.5823492296036909e-01 0.0000000000000000e+00  1.5216958752956647e-01 -1.6558380158542640e-01 0.0000000000000000e+00  2.1854254861715947e-01 -1.6813998324192378e-01 0.0000000000000000e+00  2.8619776483136256e-01 -1.7009991533809646e-01 0.0000000000000000e+00  3.5545917619808504e-01 -1.7130454043687071e-01 0.0000000000000000e+00  4.2695315285367280e-01 -1.6993673451693439e-01 0.0000000000000000e+00  4.9959209077929290e-01 -1.6150294691397771e-01 0.0000000000000000e+00  5.8136486779248653e-01 -1.3896825318405645e-01 0.0000000000000000e+00  6.3897454709391266e-01 -1.0563810338861067e-01 0.0000000000000000e+00  0.0000000000000000e+00 0.0000000000000000e+00 0.0000000000000000e+00  3.0035123136712565e-02 -1.7211294209881212e-01 0.0000000000000000e+00  8.6498832004677811e-02 -2.1932694848005854e-01 0.0000000000000000e+00  1.5056371833357332e-01 -2.2863595507445508e-01 0.0000000000000000e+00  2.1676740692156982e-01 -2.3131705556213980e-01 0.0000000000000000e+00  2.8452089986711193e-01 -2.3298446311824095e-01 0.0000000000000000e+00  3.5397633636341469e-01 -2.3459220706012210e-01 0.0000000000000000e+00  4.2581326268819458e-01 -2.3697267815304887e-01 0.0000000000000000e+00  4.9714180151401344e-01 -2.3887738381478840e-01 0.0000000000000000e+00  5.5107558188832240e-01 -2.3374560564208827e-01 0.0000000000000000e+00  7.3284057672210845e-01 -2.1342594097137663e-01 0.0000000000000000e+00  0.0000000000000000e+00 0.0000000000000000e+00 0.0000000000000000e+00  2.9028513168171288e-02 -2.2198691824883351e-01 0.0000000000000000e+00  8.3588160084929392e-02 -2.8461477832369320e-01 0.0000000000000000e+00  1.4649380437614709e-01 -3.0117017741590951e-01 0.0000000000000000e+00  2.1234351327301904e-01 -3.0985843401981500e-01 0.0000000000000000e+00  2.7943380544184615e-01 -3.1804864450184356e-01 0.0000000000000000e+00  3.4828961581780826e-01 -3.2852997989573779e-01 0.0000000000000000e+00  4.2127939905280631e-01 -3.3858477132369696e-01 0.0000000000000000e+00  4.9114694790428887e-01 -3.3444564630972812e-01 0.0000000000000000e+00  4.9106648581258516e-01 -2.8157835675949638e-01 0.0000000000000000e+00  0.0000000000000000e+00 0.0000000000000000e+00 0.0000000000000000e+00  0.0000000000000000e+00 0.0000000000000000e+00 0.0000000000000000e+00  2.7989394764745587e-02 -2.6578790871840896e-01 0.0000000000000000e+00  8.0568515489287548e-02 -3.3597694230395264e-01 0.0000000000000000e+00  1.4283957976367831e-01 -3.4818313970676135e-01 0.0000000000000000e+00  2.0936902972274396e-01 -3.4757529986177738e-01 0.0000000000000000e+00  2.7712732319913996e-01 -3.4293399251062834e-01 0.0000000000000000e+00  3.4354108838651803e-01 -3.3640480585066390e-01 0.0000000000000000e+00  4.1067526391524173e-01 -3.3444386706676760e-01 0.0000000000000000e+00  4.7879743331040359e-01 -3.4403620629442588e-01 0.0000000000000000e+00  4.7257787251383027e-01 -3.0779206863017317e-01 0.0000000000000000e+00  0.0000000000000000e+00 0.0000000000000000e+00 0.0000000000000000e+00  0.0000000000000000e+00 0.0000000000000000e+00 0.0000000000000000e+00  2.4126366434541933e-02 -3.1195029199209046e-01 0.0000000000000000e+00  6.8240754831851769e-02 -4.0363241099113045e-01 0.0000000000000000e+00  1.2450756355085625e-01 -4.4618247472101336e-01 0.0000000000000000e+00  1.9585909628311829e-01 -4.8182515099313639e-01 0.0000000000000000e+00  2.6570017635549470e-01 -4.9970822184478569e-01 0.0000000000000000e+00  3.1656728395624845e-01 -5.2142162203740750e-01 0.0000000000000000e+00  3.7477945537355106e-01 -5.8075859762577242e-01 0.0000000000000000e+00  4.6358070019103492e-01 -6.2144373584885759e-01 0.0000000000000000e+00  4.8875872825098354e-01 -5.1201405839618330e-01 0.0000000000000000e+00  0.0000000000000000e+00 0.0000000000000000e+00 0.0000000000000000e+00  0.0000000000000000e+00 0.0000000000000000e+00 0.0000000000000000e+00  1.8928367356997853e-02 -3.4102095484543132e-01 0.0000000000000000e+00  5.3890324958912654e-02 -4.3395561450773140e-01 0.0000000000000000e+00  1.1187741991361658e-01 -4.6366022859479922e-01 0.0000000000000000e+00  1.9565097201789455e-01 -4.5425286261936054e-01 0.0000000000000000e+00  2.5766218209948322e-01 -3.7096094804003260e-01 0.0000000000000000e+00  2.8684781975562590e-01 -3.1024964135039818e-01 0.0000000000000000e+00  3.2082929853537567e-01 -2.9509940491822240e-01 0.0000000000000000e+00  3.7090720984156444e-01 -3.1848264923881309e-01 0.0000000000000000e+00  4.0324247639303484e-01 -4.6015001817260331e-01 0.0000000000000000e+00  0.0000000000000000e+00 0.0000000000000000e+00 0.0000000000000000e+00  0.0000000000000000e+00 0.0000000000000000e+00 0.0000000000000000e+00  1.0822104192431492e-02 -3.7017056387257996e-01 0.0000000000000000e+00  2.9131827615887663e-02 -4.8474053969560360e-01 0.0000000000000000e+00  6.0005611059708100e-02 -5.7589676305473803e-01 0.0000000000000000e+00  1.0532246106641051e-01 -6.9485568833524458e-01 0.0000000000000000e+00  1.4562183438759393e-01 -6.9342089975573551e-01 0.0000000000000000e+00  1.1158699911882203e-01 -7.3678589055899979e-01 0.0000000000000000e+00  1.1650199519151004e-01 -9.0861959239938495e-01 0.0000000000000000e+00  1.4200786173299418e-01 -1.1104750952923896e+00 0.0000000000000000e+00  3.7690287068204870e-01 -1.2124582164098956e+00 0.0000000000000000e+00  0.0000000000000000e+00 0.0000000000000000e+00 0.0000000000000000e+00  0.0000000000000000e+00 0.0000000000000000e+00 0.0000000000000000e+00  5.9496823866991020e-03 -3.7108210303672751e-01 0.0000000000000000e+00  1.5991304033981347e-02 -4.7984911809982211e-01 0.0000000000000000e+00  3.2718590407752705e-02 -5.6036341105975018e-01 0.0000000000000000e+00  5.1834711817357812e-02 -6.2347725560229594e-01 0.0000000000000000e+00  0.0000000000000000e+00 0.0000000000000000e+00 0.0000000000000000e+00  0.0000000000000000e+00 0.0000000000000000e+00 0.0000000000000000e+00  0.0000000000000000e+00 0.0000000000000000e+00 0.0000000000000000e+00  0.0000000000000000e+00 0.0000000000000000e+00 0.0000000000000000e+00  0.0000000000000000e+00 0.0000000000000000e+00 0.0000000000000000e+00  0.0000000000000000e+00 0.0000000000000000e+00 0.0000000000000000e+00  </DataArray> 
</PointData> 
</Piece>
</UnstructuredGrid>
</VTKFile>