<?xml version="1.0"?>
<VTKFile type="UnstructuredGrid"  version="0.1"  >
<UnstructuredGrid>
<Piece  NumberOfPoints="121" NumberOfCells="200">
<Points>
<DataArray  type="Float64"  NumberOfComponents="3"  format="ascii">0 0 0  0.1 0 0  0.2 0 0  0.3 0 0  0.4 0 0  0.5 0 0  0.6 0 0  0.7 0 0  0.8 0 0  0.9 0 0  1 0 0  0 0.1 0  0.1 0.1 0  0.2 0.1 0  0.3 0.1 0  0.4 0.1 0  0.5 0.1 0  0.6 0.1 0  0.7 0.1 0  0.8 0.1 0  0.9 0.1 0  1 0.1 0  0 0.2 0  0.1 0.2 0  0.2 0.2 0  0.3 0.2 0  0.4 0.2 0  0.5 0.2 0  0.6 0.2 0  0.7 0.2 0  0.8 0.2 0  0.9 0.2 0  1 0.2 0  0 0.3 0  0.1 0.3 0  0.2 0.3 0  0.3 0.3 0  0.4 0.3 0  0.5 0.3 0  0.6 0.3 0  0.7 0.3 0  0.8 0.3 0  0.9 0.3 0  1 0.3 0  0 0.4 0  0.1 0.4 0  0.2 0.4 0  0.3 0.4 0  0.4 0.4 0  0.5 0.4 0  0.6 0.4 0  0.7 0.4 0  0.8 0.4 0  0.9 0.4 0  1 0.4 0  0 0.5 0  0.1 0.5 0  0.2 0.5 0  0.3 0.5 0  0.4 0.5 0  0.5 0.5 0  0.6 0.5 0  0.7 0.5 0  0.8 0.5 0  0.9 0.5 0  1 0.5 0  0 0.6 0  0.1 0.6 0  0.2 0.6 0  0.3 0.6 0  0.4 0.6 0  0.5 0.6 0  0.6 0.6 0  0.7 0.6 0  0.8 0.6 0  0.9 0.6 0  1 0.6 0  0 0.7 0  0.1 0.7 0  0.2 0.7 0  0.3 0.7 0  0.4 0.7 0  0.5 0.7 0  0.6 0.7 0  0.7 0.7 0  0.8 0.7 0  0.9 0.7 0  1 0.7 0  0 0.8 0  0.1 0.8 0  0.2 0.8 0  0.3 0.8 0  0.4 0.8 0  0.5 0.8 0  0.6 0.8 0  0.7 0.8 0  0.8 0.8 0  0.9 0.8 0  1 0.8 0  0 0.9 0  0.1 0.9 0  0.2 0.9 0  0.3 0.9 0  0.4 0.9 0  0.5 0.9 0  0.6 0.9 0  0.7 0.9 0  0.8 0.9 0  0.9 0.9 0  1 0.9 0  0 1 0  0.1 1 0  0.2 1 0  0.3 1 0  0.4 1 0  0.5 1 0  0.6 1 0  0.7 1 0  0.8 1 0  0.9 1 0  1 1 0  </DataArray>
</Points>
<Cells>
<DataArray  type="UInt32"  Name="connectivity"  format="ascii">0 1 12  0 11 12  1 2 13  1 12 13  2 3 14  2 13 14  3 4 15  3 14 15  4 5 16  4 15 16  5 6 17  5 16 17  6 7 18  6 17 18  7 8 19  7 18 19  8 9 20  8 19 20  9 10 21  9 20 21  11 12 23  11 22 23  12 13 24  12 23 24  13 14 25  13 24 25  14 15 26  14 25 26  15 16 27  15 26 27  16 17 28  16 27 28  17 18 29  17 28 29  18 19 30  18 29 30  19 20 31  19 30 31  20 21 32  20 31 32  22 23 34  22 33 34  23 24 35  23 34 35  24 25 36  24 35 36  25 26 37  25 36 37  26 27 38  26 37 38  27 28 39  27 38 39  28 29 40  28 39 40  29 30 41  29 40 41  30 31 42  30 41 42  31 32 43  31 42 43  33 34 45  33 44 45  34 35 46  34 45 46  35 36 47  35 46 47  36 37 48  36 47 48  37 38 49  37 48 49  38 39 50  38 49 50  39 40 51  39 50 51  40 41 52  40 51 52  41 42 53  41 52 53  42 43 54  42 53 54  44 45 56  44 55 56  45 46 57  45 56 57  46 47 58  46 57 58  47 48 59  47 58 59  48 49 60  48 59 60  49 50 61  49 60 61  50 51 62  50 61 62  51 52 63  51 62 63  52 53 64  52 63 64  53 54 65  53 64 65  55 56 67  55 66 67  56 57 68  56 67 68  57 58 69  57 68 69  58 59 70  58 69 70  59 60 71  59 70 71  60 61 72  60 71 72  61 62 73  61 72 73  62 63 74  62 73 74  63 64 75  63 74 75  64 65 76  64 75 76  66 67 78  66 77 78  67 68 79  67 78 79  68 69 80  68 79 80  69 70 81  69 80 81  70 71 82  70 81 82  71 72 83  71 82 83  72 73 84  72 83 84  73 74 85  73 84 85  74 75 86  74 85 86  75 76 87  75 86 87  77 78 89  77 88 89  78 79 90  78 89 90  79 80 91  79 90 91  80 81 92  80 91 92  81 82 93  81 92 93  82 83 94  82 93 94  83 84 95  83 94 95  84 85 96  84 95 96  85 86 97  85 96 97  86 87 98  86 97 98  88 89 100  88 99 100  89 90 101  89 100 101  90 91 102  90 101 102  91 92 103  91 102 103  92 93 104  92 103 104  93 94 105  93 104 105  94 95 106  94 105 106  95 96 107  95 106 107  96 97 108  96 107 108  97 98 109  97 108 109  99 100 111  99 110 111  100 101 112  100 111 112  101 102 113  101 112 113  102 103 114  102 113 114  103 104 115  103 114 115  104 105 116  104 115 116  105 106 117  105 116 117  106 107 118  106 117 118  107 108 119  107 118 119  108 109 120  108 119 120  </DataArray>
<DataArray  type="UInt32"  Name="offsets"  format="ascii">3 6 9 12 15 18 21 24 27 30 33 36 39 42 45 48 51 54 57 60 63 66 69 72 75 78 81 84 87 90 93 96 99 102 105 108 111 114 117 120 123 126 129 132 135 138 141 144 147 150 153 156 159 162 165 168 171 174 177 180 183 186 189 192 195 198 201 204 207 210 213 216 219 222 225 228 231 234 237 240 243 246 249 252 255 258 261 264 267 270 273 276 279 282 285 288 291 294 297 300 303 306 309 312 315 318 321 324 327 330 333 336 339 342 345 348 351 354 357 360 363 366 369 372 375 378 381 384 387 390 393 396 399 402 405 408 411 414 417 420 423 426 429 432 435 438 441 444 447 450 453 456 459 462 465 468 471 474 477 480 483 486 489 492 495 498 501 504 507 510 513 516 519 522 525 528 531 534 537 540 543 546 549 552 555 558 561 564 567 570 573 576 579 582 585 588 591 594 597 600 </DataArray>
<DataArray  type="UInt8"  Name="types"  format="ascii">5 5 5 5 5 5 5 5 5 5 5 5 5 5 5 5 5 5 5 5 5 5 5 5 5 5 5 5 5 5 5 5 5 5 5 5 5 5 5 5 5 5 5 5 5 5 5 5 5 5 5 5 5 5 5 5 5 5 5 5 5 5 5 5 5 5 5 5 5 5 5 5 5 5 5 5 5 5 5 5 5 5 5 5 5 5 5 5 5 5 5 5 5 5 5 5 5 5 5 5 5 5 5 5 5 5 5 5 5 5 5 5 5 5 5 5 5 5 5 5 5 5 5 5 5 5 5 5 5 5 5 5 5 5 5 5 5 5 5 5 5 5 5 5 5 5 5 5 5 5 5 5 5 5 5 5 5 5 5 5 5 5 5 5 5 5 5 5 5 5 5 5 5 5 5 5 5 5 5 5 5 5 5 5 5 5 5 5 5 5 5 5 5 5 5 5 5 5 5 5 </DataArray>
</Cells>
<PointData  Vectors="f_22"> 
<DataArray  type="Float64"  Name="f_22"  NumberOfComponents="3" format="ascii">0.0000000000000000e+00 0.0000000000000000e+00 0.0000000000000000e+00  0.0000000000000000e+00 0.0000000000000000e+00 0.0000000000000000e+00  0.0000000000000000e+00 0.0000000000000000e+00 0.0000000000000000e+00  0.0000000000000000e+00 0.0000000000000000e+00 0.0000000000000000e+00  0.0000000000000000e+00 0.0000000000000000e+00 0.0000000000000000e+00  0.0000000000000000e+00 0.0000000000000000e+00 0.0000000000000000e+00  0.0000000000000000e+00 0.0000000000000000e+00 0.0000000000000000e+00  0.0000000000000000e+00 0.0000000000000000e+00 0.0000000000000000e+00  0.0000000000000000e+00 0.0000000000000000e+00 0.0000000000000000e+00  0.0000000000000000e+00 0.0000000000000000e+00 0.0000000000000000e+00  0.0000000000000000e+00 0.0000000000000000e+00 0.0000000000000000e+00  0.0000000000000000e+00 0.0000000000000000e+00 0.0000000000000000e+00  -1.9757549009882035e-02 1.9323310630863039e-02 0.0000000000000000e+00  -5.2955456185595447e-02 1.9564157061442738e-02 0.0000000000000000e+00  -7.9295794073953860e-02 1.4162200200889919e-02 0.0000000000000000e+00  -9.6905430314261340e-02 1.0447801074921504e-02 0.0000000000000000e+00  -1.0937149326602916e-01 7.9909948235331908e-03 0.0000000000000000e+00  -1.1704887497835982e-01 4.9779933293908679e-03 0.0000000000000000e+00  -1.1736003662909969e-01 -1.3315154305912908e-03 0.0000000000000000e+00  -1.0459573001490491e-01 -1.4283937250024329e-02 0.0000000000000000e+00  -5.8221453043228809e-02 -3.4680077825466324e-02 0.0000000000000000e+00  -1.8430678117266588e-02 -5.4333038706441218e-02 0.0000000000000000e+00  0.0000000000000000e+00 0.0000000000000000e+00 0.0000000000000000e+00  -2.3531685961115122e-02 5.4486643860676490e-02 0.0000000000000000e+00  -5.9062931022924474e-02 5.1059492553714142e-02 0.0000000000000000e+00  -8.3228327948351416e-02 3.4195330061510196e-02 0.0000000000000000e+00  -9.5754976590694554e-02 2.2502507774511470e-02 0.0000000000000000e+00  -1.0331452125922928e-01 1.5316211252061855e-02 0.0000000000000000e+00  -1.0504902276293952e-01 8.0657952484942935e-03 0.0000000000000000e+00  -1.0742439113246342e-01 -7.5829396279902565e-03 0.0000000000000000e+00  -9.5376989254896016e-02 -3.7031947264028468e-02 0.0000000000000000e+00  -7.4242405575762435e-02 -8.0545522499674962e-02 0.0000000000000000e+00  -5.6526298857158160e-02 -1.1600459386157547e-01 0.0000000000000000e+00  0.0000000000000000e+00 0.0000000000000000e+00 0.0000000000000000e+00  -2.1244378205404247e-02 8.9176360398614318e-02 0.0000000000000000e+00  -5.2686495056051656e-02 7.9898422955963652e-02 0.0000000000000000e+00  -7.2692779152267697e-02 4.9748298083982935e-02 0.0000000000000000e+00  -8.1465700807897931e-02 3.0109607898165424e-02 0.0000000000000000e+00  -9.0070736698915702e-02 2.0598118247220295e-02 0.0000000000000000e+00  -9.2688229187419369e-02 1.4101817077897660e-02 0.0000000000000000e+00  -1.1996587567810028e-01 -2.6550917979168758e-03 0.0000000000000000e+00  -1.1859825355122802e-01 -2.6350411395972956e-02 0.0000000000000000e+00  -1.9272707064428182e-01 -7.0344809515860210e-02 0.0000000000000000e+00  -2.1437749036386797e-01 -1.2129520431458705e-01 0.0000000000000000e+00  0.0000000000000000e+00 0.0000000000000000e+00 0.0000000000000000e+00  -2.0263208528335283e-02 1.2094172592315805e-01 0.0000000000000000e+00  -4.9646705363015756e-02 1.0546152675242296e-01 0.0000000000000000e+00  -6.8804629701670922e-02 6.2907061245927445e-02 0.0000000000000000e+00  -7.7507193741436761e-02 3.8154003952155423e-02 0.0000000000000000e+00  -9.4824604230446433e-02 3.1235774647385747e-02 0.0000000000000000e+00  -1.0137578639682762e-01 3.2123483496807138e-02 0.0000000000000000e+00  -1.6637092025104511e-01 2.7284490609620699e-02 0.0000000000000000e+00  -1.5224652375203587e-01 3.6421998402919882e-02 0.0000000000000000e+00  -3.7304491573282600e-01 2.3047595162206842e-03 0.0000000000000000e+00  -3.6535486385437721e-01 -5.8634936066074436e-02 0.0000000000000000e+00  0.0000000000000000e+00 0.0000000000000000e+00 0.0000000000000000e+00  -2.0515726916673017e-02 1.5195838234195200e-01 0.0000000000000000e+00  -4.9781202722253538e-02 1.3038033860838869e-01 0.0000000000000000e+00  -7.0793662657630624e-02 7.7155504983895853e-02 0.0000000000000000e+00  -8.2722513303872133e-02 5.1698006388150114e-02 0.0000000000000000e+00  -1.1719597125098800e-01 5.3341130651657881e-02 0.0000000000000000e+00  -1.2656016194215072e-01 6.6011809806237734e-02 0.0000000000000000e+00  -2.3478116126039478e-01 7.5404509147661697e-02 0.0000000000000000e+00  -1.7154715935775677e-01 1.0520219080794317e-01 0.0000000000000000e+00  -4.6303299753908428e-01 8.9970548070100687e-02 0.0000000000000000e+00  0.0000000000000000e+00 0.0000000000000000e+00 0.0000000000000000e+00  0.0000000000000000e+00 0.0000000000000000e+00 0.0000000000000000e+00  -2.1248271212933691e-02 1.8355959527066862e-01 0.0000000000000000e+00  -5.2204026559927473e-02 1.5686914847392489e-01 0.0000000000000000e+00  -7.8793478663321315e-02 9.6583807479389133e-02 0.0000000000000000e+00  -1.0053896638027568e-01 7.7038687107930756e-02 0.0000000000000000e+00  -1.6117063879345739e-01 9.3815842392583323e-02 0.0000000000000000e+00  -1.7313163046651825e-01 1.1821291716199002e-01 0.0000000000000000e+00  -3.3339439313969549e-01 1.3552165725965470e-01 0.0000000000000000e+00  -2.1431866551321369e-01 1.6327511791111021e-01 0.0000000000000000e+00  -5.4775004528239102e-01 1.0023122384078706e-01 0.0000000000000000e+00  0.0000000000000000e+00 0.0000000000000000e+00 0.0000000000000000e+00  0.0000000000000000e+00 0.0000000000000000e+00 0.0000000000000000e+00  -2.1635866264781929e-02 2.1634344247445272e-01 0.0000000000000000e+00  -5.6224619189747950e-02 1.8791965228478127e-01 0.0000000000000000e+00  -9.2832981478625703e-02 1.2803941581953912e-01 0.0000000000000000e+00  -1.3554326400576727e-01 1.2289322174096183e-01 0.0000000000000000e+00  -2.2545455644870616e-01 1.5907242893743137e-01 0.0000000000000000e+00  -2.5011401228026792e-01 1.8986033058340501e-01 0.0000000000000000e+00  -4.5451359179634854e-01 2.1148625988351211e-01 0.0000000000000000e+00  -2.8141014215173210e-01 2.0081174633494334e-01 0.0000000000000000e+00  -6.6871888447372219e-01 8.8570719930796155e-02 0.0000000000000000e+00  0.0000000000000000e+00 0.0000000000000000e+00 0.0000000000000000e+00  0.0000000000000000e+00 0.0000000000000000e+00 0.0000000000000000e+00  -1.9932891408365815e-02 2.4910925733733152e-01 0.0000000000000000e+00  -5.7256683536831783e-02 2.2620126827138803e-01 0.0000000000000000e+00  -1.0487739759820573e-01 1.8007053554125313e-01 0.0000000000000000e+00  -1.8380217598251894e-01 1.9985678383974548e-01 0.0000000000000000e+00  -2.9566505896061962e-01 2.5278836318965830e-01 0.0000000000000000e+00  -3.5696889032687673e-01 2.8526463936231794e-01 0.0000000000000000e+00  -5.5542800390989455e-01 2.9938344254183291e-01 0.0000000000000000e+00  -3.8723069835755336e-01 2.0170497235434057e-01 0.0000000000000000e+00  -7.5781610783430464e-01 6.1059784701680317e-02 0.0000000000000000e+00  0.0000000000000000e+00 0.0000000000000000e+00 0.0000000000000000e+00  0.0000000000000000e+00 0.0000000000000000e+00 0.0000000000000000e+00  -1.4314289347303742e-02 2.7664092640001864e-01 0.0000000000000000e+00  -4.4490675928348218e-02 2.6749822729289513e-01 0.0000000000000000e+00  -9.3715773967143604e-02 2.5202761342462759e-01 0.0000000000000000e+00  -2.0700096038579521e-01 2.9949632491587741e-01 0.0000000000000000e+00  -3.1112541753315448e-01 3.4027446220425250e-01 0.0000000000000000e+00  -4.2231708724322869e-01 3.7555159401774801e-01 0.0000000000000000e+00  -5.8981402074519695e-01 3.6197154850590862e-01 0.0000000000000000e+00  -5.4147718099973097e-01 1.5762060810032927e-01 0.0000000000000000e+00  -7.3941442259691081e-01 8.2156381552529849e-03 0.0000000000000000e+00  0.0000000000000000e+00 0.0000000000000000e+00 0.0000000000000000e+00  0.0000000000000000e+00 0.0000000000000000e+00 0.0000000000000000e+00  -6.1085618151644509e-03 2.8851658693147714e-01 0.0000000000000000e+00  -2.0865610255170062e-02 2.9068133139897190e-01 0.0000000000000000e+00  -5.9448048017178116e-02 3.0370110541420564e-01 0.0000000000000000e+00  -1.9597954242414467e-01 4.7469329049010961e-01 0.0000000000000000e+00  0.0000000000000000e+00 0.0000000000000000e+00 0.0000000000000000e+00  0.0000000000000000e+00 0.0000000000000000e+00 0.0000000000000000e+00  0.0000000000000000e+00 0.0000000000000000e+00 0.0000000000000000e+00  0.0000000000000000e+00 0.0000000000000000e+00 0.0000000000000000e+00  0.0000000000000000e+00 0.0000000000000000e+00 0.0000000000000000e+00  0.0000000000000000e+00 0.0000000000000000e+00 0.0000000000000000e+00  </DataArray> 
</PointData> 
</Piece>
</UnstructuredGrid>
</VTKFile>