<?xml version="1.0"?>
<VTKFile type="UnstructuredGrid"  version="0.1"  >
<UnstructuredGrid>
<Piece  NumberOfPoints="121" NumberOfCells="200">
<Points>
<DataArray  type="Float64"  NumberOfComponents="3"  format="ascii">0 0 0  0.1 0 0  0.2 0 0  0.3 0 0  0.4 0 0  0.5 0 0  0.6 0 0  0.7 0 0  0.8 0 0  0.9 0 0  1 0 0  0 0.1 0  0.1 0.1 0  0.2 0.1 0  0.3 0.1 0  0.4 0.1 0  0.5 0.1 0  0.6 0.1 0  0.7 0.1 0  0.8 0.1 0  0.9 0.1 0  1 0.1 0  0 0.2 0  0.1 0.2 0  0.2 0.2 0  0.3 0.2 0  0.4 0.2 0  0.5 0.2 0  0.6 0.2 0  0.7 0.2 0  0.8 0.2 0  0.9 0.2 0  1 0.2 0  0 0.3 0  0.1 0.3 0  0.2 0.3 0  0.3 0.3 0  0.4 0.3 0  0.5 0.3 0  0.6 0.3 0  0.7 0.3 0  0.8 0.3 0  0.9 0.3 0  1 0.3 0  0 0.4 0  0.1 0.4 0  0.2 0.4 0  0.3 0.4 0  0.4 0.4 0  0.5 0.4 0  0.6 0.4 0  0.7 0.4 0  0.8 0.4 0  0.9 0.4 0  1 0.4 0  0 0.5 0  0.1 0.5 0  0.2 0.5 0  0.3 0.5 0  0.4 0.5 0  0.5 0.5 0  0.6 0.5 0  0.7 0.5 0  0.8 0.5 0  0.9 0.5 0  1 0.5 0  0 0.6 0  0.1 0.6 0  0.2 0.6 0  0.3 0.6 0  0.4 0.6 0  0.5 0.6 0  0.6 0.6 0  0.7 0.6 0  0.8 0.6 0  0.9 0.6 0  1 0.6 0  0 0.7 0  0.1 0.7 0  0.2 0.7 0  0.3 0.7 0  0.4 0.7 0  0.5 0.7 0  0.6 0.7 0  0.7 0.7 0  0.8 0.7 0  0.9 0.7 0  1 0.7 0  0 0.8 0  0.1 0.8 0  0.2 0.8 0  0.3 0.8 0  0.4 0.8 0  0.5 0.8 0  0.6 0.8 0  0.7 0.8 0  0.8 0.8 0  0.9 0.8 0  1 0.8 0  0 0.9 0  0.1 0.9 0  0.2 0.9 0  0.3 0.9 0  0.4 0.9 0  0.5 0.9 0  0.6 0.9 0  0.7 0.9 0  0.8 0.9 0  0.9 0.9 0  1 0.9 0  0 1 0  0.1 1 0  0.2 1 0  0.3 1 0  0.4 1 0  0.5 1 0  0.6 1 0  0.7 1 0  0.8 1 0  0.9 1 0  1 1 0  </DataArray>
</Points>
<Cells>
<DataArray  type="UInt32"  Name="connectivity"  format="ascii">0 1 12  0 11 12  1 2 13  1 12 13  2 3 14  2 13 14  3 4 15  3 14 15  4 5 16  4 15 16  5 6 17  5 16 17  6 7 18  6 17 18  7 8 19  7 18 19  8 9 20  8 19 20  9 10 21  9 20 21  11 12 23  11 22 23  12 13 24  12 23 24  13 14 25  13 24 25  14 15 26  14 25 26  15 16 27  15 26 27  16 17 28  16 27 28  17 18 29  17 28 29  18 19 30  18 29 30  19 20 31  19 30 31  20 21 32  20 31 32  22 23 34  22 33 34  23 24 35  23 34 35  24 25 36  24 35 36  25 26 37  25 36 37  26 27 38  26 37 38  27 28 39  27 38 39  28 29 40  28 39 40  29 30 41  29 40 41  30 31 42  30 41 42  31 32 43  31 42 43  33 34 45  33 44 45  34 35 46  34 45 46  35 36 47  35 46 47  36 37 48  36 47 48  37 38 49  37 48 49  38 39 50  38 49 50  39 40 51  39 50 51  40 41 52  40 51 52  41 42 53  41 52 53  42 43 54  42 53 54  44 45 56  44 55 56  45 46 57  45 56 57  46 47 58  46 57 58  47 48 59  47 58 59  48 49 60  48 59 60  49 50 61  49 60 61  50 51 62  50 61 62  51 52 63  51 62 63  52 53 64  52 63 64  53 54 65  53 64 65  55 56 67  55 66 67  56 57 68  56 67 68  57 58 69  57 68 69  58 59 70  58 69 70  59 60 71  59 70 71  60 61 72  60 71 72  61 62 73  61 72 73  62 63 74  62 73 74  63 64 75  63 74 75  64 65 76  64 75 76  66 67 78  66 77 78  67 68 79  67 78 79  68 69 80  68 79 80  69 70 81  69 80 81  70 71 82  70 81 82  71 72 83  71 82 83  72 73 84  72 83 84  73 74 85  73 84 85  74 75 86  74 85 86  75 76 87  75 86 87  77 78 89  77 88 89  78 79 90  78 89 90  79 80 91  79 90 91  80 81 92  80 91 92  81 82 93  81 92 93  82 83 94  82 93 94  83 84 95  83 94 95  84 85 96  84 95 96  85 86 97  85 96 97  86 87 98  86 97 98  88 89 100  88 99 100  89 90 101  89 100 101  90 91 102  90 101 102  91 92 103  91 102 103  92 93 104  92 103 104  93 94 105  93 104 105  94 95 106  94 105 106  95 96 107  95 106 107  96 97 108  96 107 108  97 98 109  97 108 109  99 100 111  99 110 111  100 101 112  100 111 112  101 102 113  101 112 113  102 103 114  102 113 114  103 104 115  103 114 115  104 105 116  104 115 116  105 106 117  105 116 117  106 107 118  106 117 118  107 108 119  107 118 119  108 109 120  108 119 120  </DataArray>
<DataArray  type="UInt32"  Name="offsets"  format="ascii">3 6 9 12 15 18 21 24 27 30 33 36 39 42 45 48 51 54 57 60 63 66 69 72 75 78 81 84 87 90 93 96 99 102 105 108 111 114 117 120 123 126 129 132 135 138 141 144 147 150 153 156 159 162 165 168 171 174 177 180 183 186 189 192 195 198 201 204 207 210 213 216 219 222 225 228 231 234 237 240 243 246 249 252 255 258 261 264 267 270 273 276 279 282 285 288 291 294 297 300 303 306 309 312 315 318 321 324 327 330 333 336 339 342 345 348 351 354 357 360 363 366 369 372 375 378 381 384 387 390 393 396 399 402 405 408 411 414 417 420 423 426 429 432 435 438 441 444 447 450 453 456 459 462 465 468 471 474 477 480 483 486 489 492 495 498 501 504 507 510 513 516 519 522 525 528 531 534 537 540 543 546 549 552 555 558 561 564 567 570 573 576 579 582 585 588 591 594 597 600 </DataArray>
<DataArray  type="UInt8"  Name="types"  format="ascii">5 5 5 5 5 5 5 5 5 5 5 5 5 5 5 5 5 5 5 5 5 5 5 5 5 5 5 5 5 5 5 5 5 5 5 5 5 5 5 5 5 5 5 5 5 5 5 5 5 5 5 5 5 5 5 5 5 5 5 5 5 5 5 5 5 5 5 5 5 5 5 5 5 5 5 5 5 5 5 5 5 5 5 5 5 5 5 5 5 5 5 5 5 5 5 5 5 5 5 5 5 5 5 5 5 5 5 5 5 5 5 5 5 5 5 5 5 5 5 5 5 5 5 5 5 5 5 5 5 5 5 5 5 5 5 5 5 5 5 5 5 5 5 5 5 5 5 5 5 5 5 5 5 5 5 5 5 5 5 5 5 5 5 5 5 5 5 5 5 5 5 5 5 5 5 5 5 5 5 5 5 5 5 5 5 5 5 5 5 5 5 5 5 5 5 5 5 5 5 5 </DataArray>
</Cells>
<PointData  Vectors="f_47"> 
<DataArray  type="Float64"  Name="f_47"  NumberOfComponents="3" format="ascii">0.0000000000000000e+00 0.0000000000000000e+00 0.0000000000000000e+00  0.0000000000000000e+00 0.0000000000000000e+00 0.0000000000000000e+00  0.0000000000000000e+00 0.0000000000000000e+00 0.0000000000000000e+00  0.0000000000000000e+00 0.0000000000000000e+00 0.0000000000000000e+00  0.0000000000000000e+00 0.0000000000000000e+00 0.0000000000000000e+00  0.0000000000000000e+00 0.0000000000000000e+00 0.0000000000000000e+00  0.0000000000000000e+00 0.0000000000000000e+00 0.0000000000000000e+00  0.0000000000000000e+00 0.0000000000000000e+00 0.0000000000000000e+00  0.0000000000000000e+00 0.0000000000000000e+00 0.0000000000000000e+00  0.0000000000000000e+00 0.0000000000000000e+00 0.0000000000000000e+00  0.0000000000000000e+00 0.0000000000000000e+00 0.0000000000000000e+00  0.0000000000000000e+00 0.0000000000000000e+00 0.0000000000000000e+00  9.5554282346910741e-02 -1.0000263117294031e-01 0.0000000000000000e+00  2.4821681015989808e-01 -1.1685260142931311e-01 0.0000000000000000e+00  4.1217400493135237e-01 -1.1920346779065523e-01 0.0000000000000000e+00  5.7878058132210697e-01 -1.2143094516230113e-01 0.0000000000000000e+00  7.4807641567097338e-01 -1.2337311526458609e-01 0.0000000000000000e+00  9.2015100534607330e-01 -1.2359297177009648e-01 0.0000000000000000e+00  1.0926772820751465e+00 -1.1919708747761236e-01 0.0000000000000000e+00  1.2504814264862529e+00 -1.0931122147528459e-01 0.0000000000000000e+00  1.3910112554948217e+00 -8.8067616994003187e-02 0.0000000000000000e+00  1.4862457598093239e+00 -5.7903609383222886e-02 0.0000000000000000e+00  0.0000000000000000e+00 0.0000000000000000e+00 0.0000000000000000e+00  9.9322405724560442e-02 -2.5000322400086861e-01 0.0000000000000000e+00  2.6018867682563396e-01 -2.8782023717214383e-01 0.0000000000000000e+00  4.3380645194458212e-01 -2.9374048199313713e-01 0.0000000000000000e+00  6.1036515939162694e-01 -2.9841524283761023e-01 0.0000000000000000e+00  7.8870391234649972e-01 -3.0181955459730647e-01 0.0000000000000000e+00  9.6720319095358664e-01 -3.0199392346993226e-01 0.0000000000000000e+00  1.1585298880376402e+00 -2.9830431695587234e-01 0.0000000000000000e+00  1.3654141042827910e+00 -2.8228223865940921e-01 0.0000000000000000e+00  1.5176750733711089e+00 -2.4452493679103748e-01 0.0000000000000000e+00  1.6686426527683114e+00 -1.6938731574119978e-01 0.0000000000000000e+00  0.0000000000000000e+00 0.0000000000000000e+00 0.0000000000000000e+00  9.6955143212669959e-02 -4.0208091600215340e-01 0.0000000000000000e+00  2.5561181378862363e-01 -4.6273771095637023e-01 0.0000000000000000e+00  4.2718429509986744e-01 -4.7654623147483899e-01 0.0000000000000000e+00  6.0248151816262707e-01 -4.9087959755594807e-01 0.0000000000000000e+00  7.7862224940491309e-01 -5.0550600743716967e-01 0.0000000000000000e+00  9.4340495608458796e-01 -5.1284502274668387e-01 0.0000000000000000e+00  1.0966555850466000e+00 -5.0566569644696824e-01 0.0000000000000000e+00  1.3262361046661701e+00 -4.9169751266760137e-01 0.0000000000000000e+00  1.6519120334061836e+00 -4.3540536018611020e-01 0.0000000000000000e+00  1.7836398228019041e+00 -3.0440926694867909e-01 0.0000000000000000e+00  0.0000000000000000e+00 0.0000000000000000e+00 0.0000000000000000e+00  9.7135618503793680e-02 -5.3987837417811579e-01 0.0000000000000000e+00  2.5250251369566085e-01 -6.1089443871947446e-01 0.0000000000000000e+00  4.2159821267395586e-01 -6.1341214065750949e-01 0.0000000000000000e+00  5.9608625290704509e-01 -6.0793643773309924e-01 0.0000000000000000e+00  7.7218507762168576e-01 -5.9015914273471382e-01 0.0000000000000000e+00  9.2527032940099418e-01 -5.4345127810665428e-01 0.0000000000000000e+00  1.0051952408423626e+00 -4.5899281217933141e-01 0.0000000000000000e+00  1.0238977801321731e+00 -3.8839732111179848e-01 0.0000000000000000e+00  1.3654382610084208e+00 -4.9629450565832739e-01 0.0000000000000000e+00  2.1085130449997740e+00 -6.7893702992092764e-01 0.0000000000000000e+00  0.0000000000000000e+00 0.0000000000000000e+00 0.0000000000000000e+00  8.6722681995818784e-02 -7.0511762958318192e-01 0.0000000000000000e+00  2.3063598198993601e-01 -8.2451666871878904e-01 0.0000000000000000e+00  3.8966391490035635e-01 -8.8382616433968986e-01 0.0000000000000000e+00  5.5736828438081953e-01 -9.5591533834267184e-01 0.0000000000000000e+00  7.2950029133340510e-01 -1.0404683451181851e+00 0.0000000000000000e+00  8.9079031584130774e-01 -1.1259079364229239e+00 0.0000000000000000e+00  9.8783443696467255e-01 -1.1440084469666154e+00 0.0000000000000000e+00  9.1332915770666689e-01 -9.6957942161163446e-01 0.0000000000000000e+00  5.3581191245124937e-01 -5.9951742065864166e-01 0.0000000000000000e+00  0.0000000000000000e+00 0.0000000000000000e+00 0.0000000000000000e+00  0.0000000000000000e+00 0.0000000000000000e+00 0.0000000000000000e+00  9.4075833962654870e-02 -7.9066119950966796e-01 0.0000000000000000e+00  2.3751091136593686e-01 -8.7096052391134648e-01 0.0000000000000000e+00  3.9942633940615574e-01 -8.3537558429405612e-01 0.0000000000000000e+00  5.6785195431398794e-01 -7.6590905043429636e-01 0.0000000000000000e+00  7.4313024567300678e-01 -6.7940710568423668e-01 0.0000000000000000e+00  9.0842931384391001e-01 -5.7277294901885278e-01 0.0000000000000000e+00  9.9672431534934747e-01 -4.1454156283667093e-01 0.0000000000000000e+00  9.2453942178641257e-01 -2.1317043663728935e-01 0.0000000000000000e+00  4.8453681596798259e-01 -1.6093080022191233e-01 0.0000000000000000e+00  0.0000000000000000e+00 0.0000000000000000e+00 0.0000000000000000e+00  0.0000000000000000e+00 0.0000000000000000e+00 0.0000000000000000e+00  6.1415799581997069e-02 -9.7463990778864051e-01 0.0000000000000000e+00  1.5869210257592117e-01 -1.1591940978019075e+00 0.0000000000000000e+00  2.8299566241425528e-01 -1.3246136679239140e+00 0.0000000000000000e+00  4.6199198526318275e-01 -1.5263500805913532e+00 0.0000000000000000e+00  6.5509337643018029e-01 -1.6924942290820966e+00 0.0000000000000000e+00  7.8405924623167444e-01 -1.8339282235345347e+00 0.0000000000000000e+00  9.1616305397426068e-01 -2.0681035487871049e+00 0.0000000000000000e+00  9.8014185086820516e-01 -2.0194105241394009e+00 0.0000000000000000e+00  1.1866413727788216e+00 -1.1089538869325337e+00 0.0000000000000000e+00  0.0000000000000000e+00 0.0000000000000000e+00 0.0000000000000000e+00  0.0000000000000000e+00 0.0000000000000000e+00 0.0000000000000000e+00  7.0665882615615946e-02 -9.8724753055084324e-01 0.0000000000000000e+00  1.6679400942743419e-01 -1.0906200280295146e+00 0.0000000000000000e+00  3.2625893272162010e-01 -1.0797521356697648e+00 0.0000000000000000e+00  5.0305071333067641e-01 -9.9483809494968500e-01 0.0000000000000000e+00  6.6236015039794838e-01 -6.5709412839467940e-01 0.0000000000000000e+00  7.5991505083313948e-01 -4.1669149468575123e-01 0.0000000000000000e+00  8.2874041496747386e-01 -3.8369755898409436e-01 0.0000000000000000e+00  8.9437711110666795e-01 -4.7691731653607622e-01 0.0000000000000000e+00  -7.3091961238781866e-02 -1.5924004259760915e+00 0.0000000000000000e+00  0.0000000000000000e+00 0.0000000000000000e+00 0.0000000000000000e+00  0.0000000000000000e+00 0.0000000000000000e+00 0.0000000000000000e+00  2.0760449804742134e-02 -1.1081060240110383e+00 0.0000000000000000e+00  3.9496828355013995e-02 -1.3138830442331648e+00 0.0000000000000000e+00  4.5181435659339006e-02 -1.5753116449356128e+00 0.0000000000000000e+00  5.8947316832654292e-02 -2.0083400624518930e+00 0.0000000000000000e+00  2.1385421818750006e-01 -2.1029961718907981e+00 0.0000000000000000e+00  1.2946272823233959e-01 -2.3744821851374143e+00 0.0000000000000000e+00  2.2710262056225333e-01 -2.7844452178587242e+00 0.0000000000000000e+00  2.9697474377382121e-01 -3.2808919102917486e+00 0.0000000000000000e+00  1.2134719564507559e+00 -3.5555983151953958e+00 0.0000000000000000e+00  0.0000000000000000e+00 0.0000000000000000e+00 0.0000000000000000e+00  0.0000000000000000e+00 0.0000000000000000e+00 0.0000000000000000e+00  4.3376189088231189e-03 -1.0617208876561317e+00 0.0000000000000000e+00  1.5787997337236782e-02 -1.1978563697940245e+00 0.0000000000000000e+00  1.1014454709125290e-02 -1.3415596156426588e+00 0.0000000000000000e+00  -4.3702850586734572e-02 -1.4954718516090637e+00 0.0000000000000000e+00  0.0000000000000000e+00 0.0000000000000000e+00 0.0000000000000000e+00  0.0000000000000000e+00 0.0000000000000000e+00 0.0000000000000000e+00  0.0000000000000000e+00 0.0000000000000000e+00 0.0000000000000000e+00  0.0000000000000000e+00 0.0000000000000000e+00 0.0000000000000000e+00  0.0000000000000000e+00 0.0000000000000000e+00 0.0000000000000000e+00  0.0000000000000000e+00 0.0000000000000000e+00 0.0000000000000000e+00  </DataArray> 
</PointData> 
</Piece>
</UnstructuredGrid>
</VTKFile>