<?xml version="1.0"?>
<VTKFile type="UnstructuredGrid"  version="0.1"  >
<UnstructuredGrid>
<Piece  NumberOfPoints="121" NumberOfCells="200">
<Points>
<DataArray  type="Float64"  NumberOfComponents="3"  format="ascii">0 0 0  0.1 0 0  0.2 0 0  0.3 0 0  0.4 0 0  0.5 0 0  0.6 0 0  0.7 0 0  0.8 0 0  0.9 0 0  1 0 0  0 0.1 0  0.1 0.1 0  0.2 0.1 0  0.3 0.1 0  0.4 0.1 0  0.5 0.1 0  0.6 0.1 0  0.7 0.1 0  0.8 0.1 0  0.9 0.1 0  1 0.1 0  0 0.2 0  0.1 0.2 0  0.2 0.2 0  0.3 0.2 0  0.4 0.2 0  0.5 0.2 0  0.6 0.2 0  0.7 0.2 0  0.8 0.2 0  0.9 0.2 0  1 0.2 0  0 0.3 0  0.1 0.3 0  0.2 0.3 0  0.3 0.3 0  0.4 0.3 0  0.5 0.3 0  0.6 0.3 0  0.7 0.3 0  0.8 0.3 0  0.9 0.3 0  1 0.3 0  0 0.4 0  0.1 0.4 0  0.2 0.4 0  0.3 0.4 0  0.4 0.4 0  0.5 0.4 0  0.6 0.4 0  0.7 0.4 0  0.8 0.4 0  0.9 0.4 0  1 0.4 0  0 0.5 0  0.1 0.5 0  0.2 0.5 0  0.3 0.5 0  0.4 0.5 0  0.5 0.5 0  0.6 0.5 0  0.7 0.5 0  0.8 0.5 0  0.9 0.5 0  1 0.5 0  0 0.6 0  0.1 0.6 0  0.2 0.6 0  0.3 0.6 0  0.4 0.6 0  0.5 0.6 0  0.6 0.6 0  0.7 0.6 0  0.8 0.6 0  0.9 0.6 0  1 0.6 0  0 0.7 0  0.1 0.7 0  0.2 0.7 0  0.3 0.7 0  0.4 0.7 0  0.5 0.7 0  0.6 0.7 0  0.7 0.7 0  0.8 0.7 0  0.9 0.7 0  1 0.7 0  0 0.8 0  0.1 0.8 0  0.2 0.8 0  0.3 0.8 0  0.4 0.8 0  0.5 0.8 0  0.6 0.8 0  0.7 0.8 0  0.8 0.8 0  0.9 0.8 0  1 0.8 0  0 0.9 0  0.1 0.9 0  0.2 0.9 0  0.3 0.9 0  0.4 0.9 0  0.5 0.9 0  0.6 0.9 0  0.7 0.9 0  0.8 0.9 0  0.9 0.9 0  1 0.9 0  0 1 0  0.1 1 0  0.2 1 0  0.3 1 0  0.4 1 0  0.5 1 0  0.6 1 0  0.7 1 0  0.8 1 0  0.9 1 0  1 1 0  </DataArray>
</Points>
<Cells>
<DataArray  type="UInt32"  Name="connectivity"  format="ascii">0 1 12  0 11 12  1 2 13  1 12 13  2 3 14  2 13 14  3 4 15  3 14 15  4 5 16  4 15 16  5 6 17  5 16 17  6 7 18  6 17 18  7 8 19  7 18 19  8 9 20  8 19 20  9 10 21  9 20 21  11 12 23  11 22 23  12 13 24  12 23 24  13 14 25  13 24 25  14 15 26  14 25 26  15 16 27  15 26 27  16 17 28  16 27 28  17 18 29  17 28 29  18 19 30  18 29 30  19 20 31  19 30 31  20 21 32  20 31 32  22 23 34  22 33 34  23 24 35  23 34 35  24 25 36  24 35 36  25 26 37  25 36 37  26 27 38  26 37 38  27 28 39  27 38 39  28 29 40  28 39 40  29 30 41  29 40 41  30 31 42  30 41 42  31 32 43  31 42 43  33 34 45  33 44 45  34 35 46  34 45 46  35 36 47  35 46 47  36 37 48  36 47 48  37 38 49  37 48 49  38 39 50  38 49 50  39 40 51  39 50 51  40 41 52  40 51 52  41 42 53  41 52 53  42 43 54  42 53 54  44 45 56  44 55 56  45 46 57  45 56 57  46 47 58  46 57 58  47 48 59  47 58 59  48 49 60  48 59 60  49 50 61  49 60 61  50 51 62  50 61 62  51 52 63  51 62 63  52 53 64  52 63 64  53 54 65  53 64 65  55 56 67  55 66 67  56 57 68  56 67 68  57 58 69  57 68 69  58 59 70  58 69 70  59 60 71  59 70 71  60 61 72  60 71 72  61 62 73  61 72 73  62 63 74  62 73 74  63 64 75  63 74 75  64 65 76  64 75 76  66 67 78  66 77 78  67 68 79  67 78 79  68 69 80  68 79 80  69 70 81  69 80 81  70 71 82  70 81 82  71 72 83  71 82 83  72 73 84  72 83 84  73 74 85  73 84 85  74 75 86  74 85 86  75 76 87  75 86 87  77 78 89  77 88 89  78 79 90  78 89 90  79 80 91  79 90 91  80 81 92  80 91 92  81 82 93  81 92 93  82 83 94  82 93 94  83 84 95  83 94 95  84 85 96  84 95 96  85 86 97  85 96 97  86 87 98  86 97 98  88 89 100  88 99 100  89 90 101  89 100 101  90 91 102  90 101 102  91 92 103  91 102 103  92 93 104  92 103 104  93 94 105  93 104 105  94 95 106  94 105 106  95 96 107  95 106 107  96 97 108  96 107 108  97 98 109  97 108 109  99 100 111  99 110 111  100 101 112  100 111 112  101 102 113  101 112 113  102 103 114  102 113 114  103 104 115  103 114 115  104 105 116  104 115 116  105 106 117  105 116 117  106 107 118  106 117 118  107 108 119  107 118 119  108 109 120  108 119 120  </DataArray>
<DataArray  type="UInt32"  Name="offsets"  format="ascii">3 6 9 12 15 18 21 24 27 30 33 36 39 42 45 48 51 54 57 60 63 66 69 72 75 78 81 84 87 90 93 96 99 102 105 108 111 114 117 120 123 126 129 132 135 138 141 144 147 150 153 156 159 162 165 168 171 174 177 180 183 186 189 192 195 198 201 204 207 210 213 216 219 222 225 228 231 234 237 240 243 246 249 252 255 258 261 264 267 270 273 276 279 282 285 288 291 294 297 300 303 306 309 312 315 318 321 324 327 330 333 336 339 342 345 348 351 354 357 360 363 366 369 372 375 378 381 384 387 390 393 396 399 402 405 408 411 414 417 420 423 426 429 432 435 438 441 444 447 450 453 456 459 462 465 468 471 474 477 480 483 486 489 492 495 498 501 504 507 510 513 516 519 522 525 528 531 534 537 540 543 546 549 552 555 558 561 564 567 570 573 576 579 582 585 588 591 594 597 600 </DataArray>
<DataArray  type="UInt8"  Name="types"  format="ascii">5 5 5 5 5 5 5 5 5 5 5 5 5 5 5 5 5 5 5 5 5 5 5 5 5 5 5 5 5 5 5 5 5 5 5 5 5 5 5 5 5 5 5 5 5 5 5 5 5 5 5 5 5 5 5 5 5 5 5 5 5 5 5 5 5 5 5 5 5 5 5 5 5 5 5 5 5 5 5 5 5 5 5 5 5 5 5 5 5 5 5 5 5 5 5 5 5 5 5 5 5 5 5 5 5 5 5 5 5 5 5 5 5 5 5 5 5 5 5 5 5 5 5 5 5 5 5 5 5 5 5 5 5 5 5 5 5 5 5 5 5 5 5 5 5 5 5 5 5 5 5 5 5 5 5 5 5 5 5 5 5 5 5 5 5 5 5 5 5 5 5 5 5 5 5 5 5 5 5 5 5 5 5 5 5 5 5 5 5 5 5 5 5 5 5 5 5 5 5 5 </DataArray>
</Cells>
<PointData  Vectors="f_22"> 
<DataArray  type="Float64"  Name="f_22"  NumberOfComponents="3" format="ascii">0.0000000000000000e+00 0.0000000000000000e+00 0.0000000000000000e+00  0.0000000000000000e+00 0.0000000000000000e+00 0.0000000000000000e+00  0.0000000000000000e+00 0.0000000000000000e+00 0.0000000000000000e+00  0.0000000000000000e+00 0.0000000000000000e+00 0.0000000000000000e+00  0.0000000000000000e+00 0.0000000000000000e+00 0.0000000000000000e+00  0.0000000000000000e+00 0.0000000000000000e+00 0.0000000000000000e+00  0.0000000000000000e+00 0.0000000000000000e+00 0.0000000000000000e+00  0.0000000000000000e+00 0.0000000000000000e+00 0.0000000000000000e+00  0.0000000000000000e+00 0.0000000000000000e+00 0.0000000000000000e+00  0.0000000000000000e+00 0.0000000000000000e+00 0.0000000000000000e+00  0.0000000000000000e+00 0.0000000000000000e+00 0.0000000000000000e+00  0.0000000000000000e+00 0.0000000000000000e+00 0.0000000000000000e+00  -7.2958717146525487e-03 5.8911044634317629e-03 0.0000000000000000e+00  2.6292358225540337e-03 -8.4920232379116015e-03 0.0000000000000000e+00  3.1651156553999631e-02 -1.7427697851813449e-02 0.0000000000000000e+00  7.0275180166692999e-02 -2.1249390069294407e-02 0.0000000000000000e+00  1.1303250594839939e-01 -2.3301565264248335e-02 0.0000000000000000e+00  1.5891135082408542e-01 -2.6045704614759038e-02 0.0000000000000000e+00  2.0998922371143006e-01 -3.0974491872809956e-02 0.0000000000000000e+00  2.7014166554968966e-01 -3.8576591408955620e-02 0.0000000000000000e+00  3.4219354890267217e-01 -4.8672146185831593e-02 0.0000000000000000e+00  4.1681264622679082e-01 -5.8695531376989137e-02 0.0000000000000000e+00  0.0000000000000000e+00 0.0000000000000000e+00 0.0000000000000000e+00  -4.8602972538433253e-04 2.5517237276928943e-03 0.0000000000000000e+00  2.1428211486762511e-02 -3.6165810283583844e-02 0.0000000000000000e+00  6.4008682714513793e-02 -6.0487771230991624e-02 0.0000000000000000e+00  1.1677056595780899e-01 -7.0828289027986116e-02 0.0000000000000000e+00  1.7311723912595925e-01 -7.5560611095927085e-02 0.0000000000000000e+00  2.3090408670742929e-01 -8.1292688552773010e-02 0.0000000000000000e+00  2.9172178149393468e-01 -9.2711600521747914e-02 0.0000000000000000e+00  3.5979859462217190e-01 -1.1280137130566434e-01 0.0000000000000000e+00  4.4050722905903622e-01 -1.3982911150314348e-01 0.0000000000000000e+00  5.2656969329232639e-01 -1.6464406620719116e-01 0.0000000000000000e+00  0.0000000000000000e+00 0.0000000000000000e+00 0.0000000000000000e+00  1.0721970084503153e-03 -8.8575521480749354e-03 0.0000000000000000e+00  2.6089804089835113e-02 -7.4115067085637157e-02 0.0000000000000000e+00  7.1400386003003358e-02 -1.1373905756728592e-01 0.0000000000000000e+00  1.2579456278230786e-01 -1.2945567524755514e-01 0.0000000000000000e+00  1.8163231438075586e-01 -1.3452971847457643e-01 0.0000000000000000e+00  2.3532843706270956e-01 -1.3953088663030183e-01 0.0000000000000000e+00  2.8762896919614162e-01 -1.5258064743705840e-01 0.0000000000000000e+00  3.4413185001604985e-01 -1.7829335280718103e-01 0.0000000000000000e+00  4.1050692418240536e-01 -2.1727702480335068e-01 0.0000000000000000e+00  4.8774758374243965e-01 -2.7555322240773811e-01 0.0000000000000000e+00  0.0000000000000000e+00 0.0000000000000000e+00 0.0000000000000000e+00  2.1395451779988328e-03 -1.9128714634553803e-02 0.0000000000000000e+00  2.8397153245574510e-02 -1.0838757131465837e-01 0.0000000000000000e+00  7.4490156460711623e-02 -1.6112012420065114e-01 0.0000000000000000e+00  1.2917641522325840e-01 -1.8083460865021422e-01 0.0000000000000000e+00  1.8274515183314807e-01 -1.8327639027294790e-01 0.0000000000000000e+00  2.2764468506261756e-01 -1.8237202851705922e-01 0.0000000000000000e+00  2.6247652238882452e-01 -1.9326735927797722e-01 0.0000000000000000e+00  2.9347814318506887e-01 -2.2933837612576527e-01 0.0000000000000000e+00  3.2887982725246351e-01 -2.9977157426669265e-01 0.0000000000000000e+00  3.6952942369487746e-01 -3.5646743958865923e-01 0.0000000000000000e+00  0.0000000000000000e+00 0.0000000000000000e+00 0.0000000000000000e+00  3.2626591021332960e-03 -3.5434058187174163e-02 0.0000000000000000e+00  2.9866691414743494e-02 -1.5332870009789945e-01 0.0000000000000000e+00  7.6794465240745874e-02 -2.2305720446981731e-01 0.0000000000000000e+00  1.3305840001554203e-01 -2.4664151097224885e-01 0.0000000000000000e+00  1.8359545323424709e-01 -2.3826887520711693e-01 0.0000000000000000e+00  2.1353883137135324e-01 -2.1741422491822548e-01 0.0000000000000000e+00  2.2083314938684342e-01 -2.1218923172523699e-01 0.0000000000000000e+00  2.1371413746974538e-01 -2.4110008890770479e-01 0.0000000000000000e+00  2.1141315864911653e-01 -2.9379001604078980e-01 0.0000000000000000e+00  0.0000000000000000e+00 0.0000000000000000e+00 0.0000000000000000e+00  0.0000000000000000e+00 0.0000000000000000e+00 0.0000000000000000e+00  4.4216749207039953e-03 -4.6257879642204319e-02 0.0000000000000000e+00  3.1447621904949243e-02 -1.8176062195562870e-01 0.0000000000000000e+00  7.7657648406901023e-02 -2.6178482455187702e-01 0.0000000000000000e+00  1.3201762668434983e-01 -2.8685869528832320e-01 0.0000000000000000e+00  1.7253122748093844e-01 -2.5939770517998784e-01 0.0000000000000000e+00  1.7530364320460581e-01 -2.0618676676084996e-01 0.0000000000000000e+00  1.4467136614118278e-01 -1.8528027902753633e-01 0.0000000000000000e+00  1.1232739404550586e-01 -2.1594132514396913e-01 0.0000000000000000e+00  4.7899723032182900e-02 -2.3592514323160424e-01 0.0000000000000000e+00  0.0000000000000000e+00 0.0000000000000000e+00 0.0000000000000000e+00  0.0000000000000000e+00 0.0000000000000000e+00 0.0000000000000000e+00  5.8620611439719507e-03 -6.5105468354355878e-02 0.0000000000000000e+00  2.9113101584264840e-02 -2.2939343797512840e-01 0.0000000000000000e+00  7.0347171810002496e-02 -3.3523497036899652e-01 0.0000000000000000e+00  1.1883916529731678e-01 -3.6449280106889792e-01 0.0000000000000000e+00  1.3842505052874721e-01 -2.8931626378646264e-01 0.0000000000000000e+00  1.0280265869346888e-01 -1.8122719806239143e-01 0.0000000000000000e+00  3.4627508429727588e-02 -1.4503194586672061e-01 0.0000000000000000e+00  2.3368977762780994e-04 -1.7149168891575259e-01 0.0000000000000000e+00  -1.8264918187304749e-01 -1.3619878886487313e-01 0.0000000000000000e+00  0.0000000000000000e+00 0.0000000000000000e+00 0.0000000000000000e+00  0.0000000000000000e+00 0.0000000000000000e+00 0.0000000000000000e+00  5.9107664973312747e-03 -7.6104936707024479e-02 0.0000000000000000e+00  2.6607698937949929e-02 -2.4735644482406419e-01 0.0000000000000000e+00  5.9645891549966336e-02 -3.5339043869396769e-01 0.0000000000000000e+00  8.9605944117344322e-02 -3.6061768923572984e-01 0.0000000000000000e+00  7.8512232544906746e-02 -2.1748067102871835e-01 0.0000000000000000e+00  1.4772347047164864e-02 -8.2725419079237944e-02 0.0000000000000000e+00  -8.0757997790914096e-02 -5.8026419647010913e-02 0.0000000000000000e+00  -1.1589332254100421e-01 -7.9296146069236975e-02 0.0000000000000000e+00  -4.4890820943247800e-01 -1.8306514791003720e-02 0.0000000000000000e+00  0.0000000000000000e+00 0.0000000000000000e+00 0.0000000000000000e+00  0.0000000000000000e+00 0.0000000000000000e+00 0.0000000000000000e+00  7.2486153499350158e-03 -9.3232751404492595e-02 0.0000000000000000e+00  2.2194933314437733e-02 -2.7828708920072515e-01 0.0000000000000000e+00  3.7070382958276422e-02 -4.0370046916480173e-01 0.0000000000000000e+00  4.7157445989330408e-02 -4.2035836855638237e-01 0.0000000000000000e+00  2.2355232597942865e-02 -2.2385808864529277e-01 0.0000000000000000e+00  -4.6535920306201739e-02 -6.0668375666472776e-02 0.0000000000000000e+00  -1.1764233567093153e-01 1.6612691933366022e-02 0.0000000000000000e+00  -1.6505920454535419e-01 9.1821862305825397e-02 0.0000000000000000e+00  -6.4592330296425693e-01 9.1653676166191453e-02 0.0000000000000000e+00  0.0000000000000000e+00 0.0000000000000000e+00 0.0000000000000000e+00  0.0000000000000000e+00 0.0000000000000000e+00 0.0000000000000000e+00  7.8114041868909663e-03 -1.0558203286251380e-01 0.0000000000000000e+00  1.8735913203712987e-02 -2.8222877151853543e-01 0.0000000000000000e+00  2.6743455492742742e-02 -3.9765629241903533e-01 0.0000000000000000e+00  2.7430502054220651e-02 -3.8584733741505567e-01 0.0000000000000000e+00  0.0000000000000000e+00 0.0000000000000000e+00 0.0000000000000000e+00  0.0000000000000000e+00 0.0000000000000000e+00 0.0000000000000000e+00  0.0000000000000000e+00 0.0000000000000000e+00 0.0000000000000000e+00  0.0000000000000000e+00 0.0000000000000000e+00 0.0000000000000000e+00  0.0000000000000000e+00 0.0000000000000000e+00 0.0000000000000000e+00  0.0000000000000000e+00 0.0000000000000000e+00 0.0000000000000000e+00  </DataArray> 
</PointData> 
</Piece>
</UnstructuredGrid>
</VTKFile>