<?xml version="1.0"?>
<VTKFile type="UnstructuredGrid"  version="0.1"  >
<UnstructuredGrid>
<Piece  NumberOfPoints="121" NumberOfCells="200">
<Points>
<DataArray  type="Float64"  NumberOfComponents="3"  format="ascii">0 0 0  0.1 0 0  0.2 0 0  0.3 0 0  0.4 0 0  0.5 0 0  0.6 0 0  0.7 0 0  0.8 0 0  0.9 0 0  1 0 0  0 0.1 0  0.1 0.1 0  0.2 0.1 0  0.3 0.1 0  0.4 0.1 0  0.5 0.1 0  0.6 0.1 0  0.7 0.1 0  0.8 0.1 0  0.9 0.1 0  1 0.1 0  0 0.2 0  0.1 0.2 0  0.2 0.2 0  0.3 0.2 0  0.4 0.2 0  0.5 0.2 0  0.6 0.2 0  0.7 0.2 0  0.8 0.2 0  0.9 0.2 0  1 0.2 0  0 0.3 0  0.1 0.3 0  0.2 0.3 0  0.3 0.3 0  0.4 0.3 0  0.5 0.3 0  0.6 0.3 0  0.7 0.3 0  0.8 0.3 0  0.9 0.3 0  1 0.3 0  0 0.4 0  0.1 0.4 0  0.2 0.4 0  0.3 0.4 0  0.4 0.4 0  0.5 0.4 0  0.6 0.4 0  0.7 0.4 0  0.8 0.4 0  0.9 0.4 0  1 0.4 0  0 0.5 0  0.1 0.5 0  0.2 0.5 0  0.3 0.5 0  0.4 0.5 0  0.5 0.5 0  0.6 0.5 0  0.7 0.5 0  0.8 0.5 0  0.9 0.5 0  1 0.5 0  0 0.6 0  0.1 0.6 0  0.2 0.6 0  0.3 0.6 0  0.4 0.6 0  0.5 0.6 0  0.6 0.6 0  0.7 0.6 0  0.8 0.6 0  0.9 0.6 0  1 0.6 0  0 0.7 0  0.1 0.7 0  0.2 0.7 0  0.3 0.7 0  0.4 0.7 0  0.5 0.7 0  0.6 0.7 0  0.7 0.7 0  0.8 0.7 0  0.9 0.7 0  1 0.7 0  0 0.8 0  0.1 0.8 0  0.2 0.8 0  0.3 0.8 0  0.4 0.8 0  0.5 0.8 0  0.6 0.8 0  0.7 0.8 0  0.8 0.8 0  0.9 0.8 0  1 0.8 0  0 0.9 0  0.1 0.9 0  0.2 0.9 0  0.3 0.9 0  0.4 0.9 0  0.5 0.9 0  0.6 0.9 0  0.7 0.9 0  0.8 0.9 0  0.9 0.9 0  1 0.9 0  0 1 0  0.1 1 0  0.2 1 0  0.3 1 0  0.4 1 0  0.5 1 0  0.6 1 0  0.7 1 0  0.8 1 0  0.9 1 0  1 1 0  </DataArray>
</Points>
<Cells>
<DataArray  type="UInt32"  Name="connectivity"  format="ascii">0 1 12  0 11 12  1 2 13  1 12 13  2 3 14  2 13 14  3 4 15  3 14 15  4 5 16  4 15 16  5 6 17  5 16 17  6 7 18  6 17 18  7 8 19  7 18 19  8 9 20  8 19 20  9 10 21  9 20 21  11 12 23  11 22 23  12 13 24  12 23 24  13 14 25  13 24 25  14 15 26  14 25 26  15 16 27  15 26 27  16 17 28  16 27 28  17 18 29  17 28 29  18 19 30  18 29 30  19 20 31  19 30 31  20 21 32  20 31 32  22 23 34  22 33 34  23 24 35  23 34 35  24 25 36  24 35 36  25 26 37  25 36 37  26 27 38  26 37 38  27 28 39  27 38 39  28 29 40  28 39 40  29 30 41  29 40 41  30 31 42  30 41 42  31 32 43  31 42 43  33 34 45  33 44 45  34 35 46  34 45 46  35 36 47  35 46 47  36 37 48  36 47 48  37 38 49  37 48 49  38 39 50  38 49 50  39 40 51  39 50 51  40 41 52  40 51 52  41 42 53  41 52 53  42 43 54  42 53 54  44 45 56  44 55 56  45 46 57  45 56 57  46 47 58  46 57 58  47 48 59  47 58 59  48 49 60  48 59 60  49 50 61  49 60 61  50 51 62  50 61 62  51 52 63  51 62 63  52 53 64  52 63 64  53 54 65  53 64 65  55 56 67  55 66 67  56 57 68  56 67 68  57 58 69  57 68 69  58 59 70  58 69 70  59 60 71  59 70 71  60 61 72  60 71 72  61 62 73  61 72 73  62 63 74  62 73 74  63 64 75  63 74 75  64 65 76  64 75 76  66 67 78  66 77 78  67 68 79  67 78 79  68 69 80  68 79 80  69 70 81  69 80 81  70 71 82  70 81 82  71 72 83  71 82 83  72 73 84  72 83 84  73 74 85  73 84 85  74 75 86  74 85 86  75 76 87  75 86 87  77 78 89  77 88 89  78 79 90  78 89 90  79 80 91  79 90 91  80 81 92  80 91 92  81 82 93  81 92 93  82 83 94  82 93 94  83 84 95  83 94 95  84 85 96  84 95 96  85 86 97  85 96 97  86 87 98  86 97 98  88 89 100  88 99 100  89 90 101  89 100 101  90 91 102  90 101 102  91 92 103  91 102 103  92 93 104  92 103 104  93 94 105  93 104 105  94 95 106  94 105 106  95 96 107  95 106 107  96 97 108  96 107 108  97 98 109  97 108 109  99 100 111  99 110 111  100 101 112  100 111 112  101 102 113  101 112 113  102 103 114  102 113 114  103 104 115  103 114 115  104 105 116  104 115 116  105 106 117  105 116 117  106 107 118  106 117 118  107 108 119  107 118 119  108 109 120  108 119 120  </DataArray>
<DataArray  type="UInt32"  Name="offsets"  format="ascii">3 6 9 12 15 18 21 24 27 30 33 36 39 42 45 48 51 54 57 60 63 66 69 72 75 78 81 84 87 90 93 96 99 102 105 108 111 114 117 120 123 126 129 132 135 138 141 144 147 150 153 156 159 162 165 168 171 174 177 180 183 186 189 192 195 198 201 204 207 210 213 216 219 222 225 228 231 234 237 240 243 246 249 252 255 258 261 264 267 270 273 276 279 282 285 288 291 294 297 300 303 306 309 312 315 318 321 324 327 330 333 336 339 342 345 348 351 354 357 360 363 366 369 372 375 378 381 384 387 390 393 396 399 402 405 408 411 414 417 420 423 426 429 432 435 438 441 444 447 450 453 456 459 462 465 468 471 474 477 480 483 486 489 492 495 498 501 504 507 510 513 516 519 522 525 528 531 534 537 540 543 546 549 552 555 558 561 564 567 570 573 576 579 582 585 588 591 594 597 600 </DataArray>
<DataArray  type="UInt8"  Name="types"  format="ascii">5 5 5 5 5 5 5 5 5 5 5 5 5 5 5 5 5 5 5 5 5 5 5 5 5 5 5 5 5 5 5 5 5 5 5 5 5 5 5 5 5 5 5 5 5 5 5 5 5 5 5 5 5 5 5 5 5 5 5 5 5 5 5 5 5 5 5 5 5 5 5 5 5 5 5 5 5 5 5 5 5 5 5 5 5 5 5 5 5 5 5 5 5 5 5 5 5 5 5 5 5 5 5 5 5 5 5 5 5 5 5 5 5 5 5 5 5 5 5 5 5 5 5 5 5 5 5 5 5 5 5 5 5 5 5 5 5 5 5 5 5 5 5 5 5 5 5 5 5 5 5 5 5 5 5 5 5 5 5 5 5 5 5 5 5 5 5 5 5 5 5 5 5 5 5 5 5 5 5 5 5 5 5 5 5 5 5 5 5 5 5 5 5 5 5 5 5 5 5 5 </DataArray>
</Cells>
<PointData  Vectors="f_47"> 
<DataArray  type="Float64"  Name="f_47"  NumberOfComponents="3" format="ascii">0.0000000000000000e+00 0.0000000000000000e+00 0.0000000000000000e+00  0.0000000000000000e+00 0.0000000000000000e+00 0.0000000000000000e+00  0.0000000000000000e+00 0.0000000000000000e+00 0.0000000000000000e+00  0.0000000000000000e+00 0.0000000000000000e+00 0.0000000000000000e+00  0.0000000000000000e+00 0.0000000000000000e+00 0.0000000000000000e+00  0.0000000000000000e+00 0.0000000000000000e+00 0.0000000000000000e+00  0.0000000000000000e+00 0.0000000000000000e+00 0.0000000000000000e+00  0.0000000000000000e+00 0.0000000000000000e+00 0.0000000000000000e+00  0.0000000000000000e+00 0.0000000000000000e+00 0.0000000000000000e+00  0.0000000000000000e+00 0.0000000000000000e+00 0.0000000000000000e+00  0.0000000000000000e+00 0.0000000000000000e+00 0.0000000000000000e+00  0.0000000000000000e+00 0.0000000000000000e+00 0.0000000000000000e+00  6.7642750635103222e-02 -6.9285715776453649e-02 0.0000000000000000e+00  1.5797582030124277e-01 -7.1407027686109847e-02 0.0000000000000000e+00  2.5018199399792018e-01 -7.1741430582345542e-02 0.0000000000000000e+00  3.4269493057396272e-01 -7.1599176309029511e-02 0.0000000000000000e+00  4.3460472694077085e-01 -7.0227919702551753e-02 0.0000000000000000e+00  5.2389642795524927e-01 -6.6508513228386704e-02 0.0000000000000000e+00  6.0698395911719172e-01 -5.8980060980369009e-02 0.0000000000000000e+00  6.7786867076045598e-01 -4.6648899559884487e-02 0.0000000000000000e+00  7.2804983481535457e-01 -3.0115872713344725e-02 0.0000000000000000e+00  7.3720159572402411e-01 -1.1764221188330641e-02 0.0000000000000000e+00  0.0000000000000000e+00 0.0000000000000000e+00 0.0000000000000000e+00  6.8301773578424610e-02 -1.6079420130511071e-01 0.0000000000000000e+00  1.6258874283818486e-01 -1.6698893124916139e-01 0.0000000000000000e+00  2.5973576428199757e-01 -1.6849335483941164e-01 0.0000000000000000e+00  3.5826335177911367e-01 -1.6881540912938381e-01 0.0000000000000000e+00  4.5762573984023952e-01 -1.6667702038863277e-01 0.0000000000000000e+00  5.5621441801638072e-01 -1.5969212136330832e-01 0.0000000000000000e+00  6.5057181520830953e-01 -1.4455342540270508e-01 0.0000000000000000e+00  7.3509953673391304e-01 -1.1690875619745535e-01 0.0000000000000000e+00  7.9578172921905010e-01 -7.5817735308880599e-02 0.0000000000000000e+00  8.2709268085813314e-01 -3.1651270673665438e-02 0.0000000000000000e+00  0.0000000000000000e+00 0.0000000000000000e+00 0.0000000000000000e+00  6.7274132381813512e-02 -2.5225043366989069e-01 0.0000000000000000e+00  1.6108119244661201e-01 -2.6338490374355916e-01 0.0000000000000000e+00  2.5868758106327344e-01 -2.6699541820695954e-01 0.0000000000000000e+00  3.5933733942528739e-01 -2.6934493733291559e-01 0.0000000000000000e+00  4.6326219763021831e-01 -2.6867500096779212e-01 0.0000000000000000e+00  5.6958454489650667e-01 -2.6134721579745374e-01 0.0000000000000000e+00  6.7448299289267910e-01 -2.4190155843294966e-01 0.0000000000000000e+00  7.7178231393244956e-01 -2.0331683382383745e-01 0.0000000000000000e+00  8.6753965879809758e-01 -1.3657298467109025e-01 0.0000000000000000e+00  9.0705440294673800e-01 -6.0888583891836358e-02 0.0000000000000000e+00  0.0000000000000000e+00 0.0000000000000000e+00 0.0000000000000000e+00  6.5388892452895614e-02 -3.4204816389082021e-01 0.0000000000000000e+00  1.5722690678241785e-01 -3.5886435283592727e-01 0.0000000000000000e+00  2.5409925290822599e-01 -3.6609835981724709e-01 0.0000000000000000e+00  3.5613051001760315e-01 -3.7277348011863426e-01 0.0000000000000000e+00  4.6468122927557576e-01 -3.7694311554348531e-01 0.0000000000000000e+00  5.8012686170164895e-01 -3.7427330786307234e-01 0.0000000000000000e+00  6.9615959594038479e-01 -3.5696858177339147e-01 0.0000000000000000e+00  7.8679789998774974e-01 -3.1223179722415573e-01 0.0000000000000000e+00  8.4206005059833178e-01 -2.3512862901842266e-01 0.0000000000000000e+00  1.0734871418105720e+00 -1.2043699195862895e-01 0.0000000000000000e+00  0.0000000000000000e+00 0.0000000000000000e+00 0.0000000000000000e+00  6.2051159755826500e-02 -4.2855464826324768e-01 0.0000000000000000e+00  1.4995777810639802e-01 -4.5197225500608312e-01 0.0000000000000000e+00  2.4434025891235983e-01 -4.6471116582130534e-01 0.0000000000000000e+00  3.4612327438404622e-01 -4.7860559741596631e-01 0.0000000000000000e+00  4.5777596958960465e-01 -4.9213063107027299e-01 0.0000000000000000e+00  5.8148842230452058e-01 -5.0031380645645018e-01 0.0000000000000000e+00  7.1156348248405155e-01 -4.9101095140789452e-01 0.0000000000000000e+00  8.0649988148010188e-01 -4.3832281087968183e-01 0.0000000000000000e+00  7.0459462211840818e-01 -2.9635830515012535e-01 0.0000000000000000e+00  0.0000000000000000e+00 0.0000000000000000e+00 0.0000000000000000e+00  0.0000000000000000e+00 0.0000000000000000e+00 0.0000000000000000e+00  5.6937673657202523e-02 -5.0875885877390559e-01 0.0000000000000000e+00  1.3876817003467964e-01 -5.3900435413480086e-01 0.0000000000000000e+00  2.2923047577791247e-01 -5.5698524614138767e-01 0.0000000000000000e+00  3.2981018224247410e-01 -5.7560438323302543e-01 0.0000000000000000e+00  4.4481371960947191e-01 -5.9260245472460671e-01 0.0000000000000000e+00  5.7893244386293174e-01 -5.9643566356912026e-01 0.0000000000000000e+00  7.1013546608378852e-01 -5.6426943715212030e-01 0.0000000000000000e+00  7.5389829415899035e-01 -4.7206023805060621e-01 0.0000000000000000e+00  6.3386764881210611e-01 -3.2952896537784615e-01 0.0000000000000000e+00  0.0000000000000000e+00 0.0000000000000000e+00 0.0000000000000000e+00  0.0000000000000000e+00 0.0000000000000000e+00 0.0000000000000000e+00  4.7539833322663844e-02 -5.8214300891578119e-01 0.0000000000000000e+00  1.1672327793783739e-01 -6.2498817820877106e-01 0.0000000000000000e+00  1.9518872104737148e-01 -6.6595338768976586e-01 0.0000000000000000e+00  2.8718175946902053e-01 -7.2611268738794743e-01 0.0000000000000000e+00  3.8992776563558146e-01 -8.0327603049600826e-01 0.0000000000000000e+00  5.0703633035401541e-01 -9.1839327760336475e-01 0.0000000000000000e+00  6.5432954610999072e-01 -1.0863054705639856e+00 0.0000000000000000e+00  7.0448147745448342e-01 -1.1986717545949426e+00 0.0000000000000000e+00  2.8684487356259192e-01 -8.6619316071839458e-01 0.0000000000000000e+00  0.0000000000000000e+00 0.0000000000000000e+00 0.0000000000000000e+00  0.0000000000000000e+00 0.0000000000000000e+00 0.0000000000000000e+00  3.6989745236111440e-02 -6.3244403813496430e-01 0.0000000000000000e+00  9.2414954346515088e-02 -6.7809959607924963e-01 0.0000000000000000e+00  1.7150725071688486e-01 -7.0572231578357369e-01 0.0000000000000000e+00  2.8110757413291443e-01 -6.8718663964271121e-01 0.0000000000000000e+00  3.7842350744227166e-01 -6.0634703196267392e-01 0.0000000000000000e+00  5.1097702713162774e-01 -5.3555097761578185e-01 0.0000000000000000e+00  7.1371048951138316e-01 -3.6010255478088238e-01 0.0000000000000000e+00  8.6022167202086175e-01 5.9018893554240934e-02 0.0000000000000000e+00  3.6157904863501500e-01 4.4806656976362003e-01 0.0000000000000000e+00  0.0000000000000000e+00 0.0000000000000000e+00 0.0000000000000000e+00  0.0000000000000000e+00 0.0000000000000000e+00 0.0000000000000000e+00  1.8630285729883522e-02 -6.7742704150532795e-01 0.0000000000000000e+00  4.0232376675167103e-02 -7.5041068528904642e-01 0.0000000000000000e+00  7.5740492341126453e-02 -8.4958018348159825e-01 0.0000000000000000e+00  1.2849681114857975e-01 -1.0485030835990550e+00 0.0000000000000000e+00  2.0255609890543461e-01 -1.2842208650237470e+00 0.0000000000000000e+00  1.6854088386872398e-01 -1.5995693090995839e+00 0.0000000000000000e+00  1.5789785822439659e-01 -2.1033429677853506e+00 0.0000000000000000e+00  3.2114570594530911e-01 -2.7917577213417926e+00 0.0000000000000000e+00  9.0981106369160147e-01 -3.9244260238519701e+00 0.0000000000000000e+00  0.0000000000000000e+00 0.0000000000000000e+00 0.0000000000000000e+00  0.0000000000000000e+00 0.0000000000000000e+00 0.0000000000000000e+00  5.1934076559104663e-03 -6.5024331658600099e-01 0.0000000000000000e+00  1.5040981462792957e-02 -7.2719572854890280e-01 0.0000000000000000e+00  3.1264131175406308e-02 -8.0816648833359850e-01 0.0000000000000000e+00  5.5687394496230502e-02 -9.2530597595919417e-01 0.0000000000000000e+00  0.0000000000000000e+00 0.0000000000000000e+00 0.0000000000000000e+00  0.0000000000000000e+00 0.0000000000000000e+00 0.0000000000000000e+00  0.0000000000000000e+00 0.0000000000000000e+00 0.0000000000000000e+00  0.0000000000000000e+00 0.0000000000000000e+00 0.0000000000000000e+00  0.0000000000000000e+00 0.0000000000000000e+00 0.0000000000000000e+00  0.0000000000000000e+00 0.0000000000000000e+00 0.0000000000000000e+00  </DataArray> 
</PointData> 
</Piece>
</UnstructuredGrid>
</VTKFile>