<?xml version="1.0"?>
<VTKFile type="UnstructuredGrid"  version="0.1"  >
<UnstructuredGrid>
<Piece  NumberOfPoints="121" NumberOfCells="200">
<Points>
<DataArray  type="Float64"  NumberOfComponents="3"  format="ascii">0 0 0  0.1 0 0  0.2 0 0  0.3 0 0  0.4 0 0  0.5 0 0  0.6 0 0  0.7 0 0  0.8 0 0  0.9 0 0  1 0 0  0 0.1 0  0.1 0.1 0  0.2 0.1 0  0.3 0.1 0  0.4 0.1 0  0.5 0.1 0  0.6 0.1 0  0.7 0.1 0  0.8 0.1 0  0.9 0.1 0  1 0.1 0  0 0.2 0  0.1 0.2 0  0.2 0.2 0  0.3 0.2 0  0.4 0.2 0  0.5 0.2 0  0.6 0.2 0  0.7 0.2 0  0.8 0.2 0  0.9 0.2 0  1 0.2 0  0 0.3 0  0.1 0.3 0  0.2 0.3 0  0.3 0.3 0  0.4 0.3 0  0.5 0.3 0  0.6 0.3 0  0.7 0.3 0  0.8 0.3 0  0.9 0.3 0  1 0.3 0  0 0.4 0  0.1 0.4 0  0.2 0.4 0  0.3 0.4 0  0.4 0.4 0  0.5 0.4 0  0.6 0.4 0  0.7 0.4 0  0.8 0.4 0  0.9 0.4 0  1 0.4 0  0 0.5 0  0.1 0.5 0  0.2 0.5 0  0.3 0.5 0  0.4 0.5 0  0.5 0.5 0  0.6 0.5 0  0.7 0.5 0  0.8 0.5 0  0.9 0.5 0  1 0.5 0  0 0.6 0  0.1 0.6 0  0.2 0.6 0  0.3 0.6 0  0.4 0.6 0  0.5 0.6 0  0.6 0.6 0  0.7 0.6 0  0.8 0.6 0  0.9 0.6 0  1 0.6 0  0 0.7 0  0.1 0.7 0  0.2 0.7 0  0.3 0.7 0  0.4 0.7 0  0.5 0.7 0  0.6 0.7 0  0.7 0.7 0  0.8 0.7 0  0.9 0.7 0  1 0.7 0  0 0.8 0  0.1 0.8 0  0.2 0.8 0  0.3 0.8 0  0.4 0.8 0  0.5 0.8 0  0.6 0.8 0  0.7 0.8 0  0.8 0.8 0  0.9 0.8 0  1 0.8 0  0 0.9 0  0.1 0.9 0  0.2 0.9 0  0.3 0.9 0  0.4 0.9 0  0.5 0.9 0  0.6 0.9 0  0.7 0.9 0  0.8 0.9 0  0.9 0.9 0  1 0.9 0  0 1 0  0.1 1 0  0.2 1 0  0.3 1 0  0.4 1 0  0.5 1 0  0.6 1 0  0.7 1 0  0.8 1 0  0.9 1 0  1 1 0  </DataArray>
</Points>
<Cells>
<DataArray  type="UInt32"  Name="connectivity"  format="ascii">0 1 12  0 11 12  1 2 13  1 12 13  2 3 14  2 13 14  3 4 15  3 14 15  4 5 16  4 15 16  5 6 17  5 16 17  6 7 18  6 17 18  7 8 19  7 18 19  8 9 20  8 19 20  9 10 21  9 20 21  11 12 23  11 22 23  12 13 24  12 23 24  13 14 25  13 24 25  14 15 26  14 25 26  15 16 27  15 26 27  16 17 28  16 27 28  17 18 29  17 28 29  18 19 30  18 29 30  19 20 31  19 30 31  20 21 32  20 31 32  22 23 34  22 33 34  23 24 35  23 34 35  24 25 36  24 35 36  25 26 37  25 36 37  26 27 38  26 37 38  27 28 39  27 38 39  28 29 40  28 39 40  29 30 41  29 40 41  30 31 42  30 41 42  31 32 43  31 42 43  33 34 45  33 44 45  34 35 46  34 45 46  35 36 47  35 46 47  36 37 48  36 47 48  37 38 49  37 48 49  38 39 50  38 49 50  39 40 51  39 50 51  40 41 52  40 51 52  41 42 53  41 52 53  42 43 54  42 53 54  44 45 56  44 55 56  45 46 57  45 56 57  46 47 58  46 57 58  47 48 59  47 58 59  48 49 60  48 59 60  49 50 61  49 60 61  50 51 62  50 61 62  51 52 63  51 62 63  52 53 64  52 63 64  53 54 65  53 64 65  55 56 67  55 66 67  56 57 68  56 67 68  57 58 69  57 68 69  58 59 70  58 69 70  59 60 71  59 70 71  60 61 72  60 71 72  61 62 73  61 72 73  62 63 74  62 73 74  63 64 75  63 74 75  64 65 76  64 75 76  66 67 78  66 77 78  67 68 79  67 78 79  68 69 80  68 79 80  69 70 81  69 80 81  70 71 82  70 81 82  71 72 83  71 82 83  72 73 84  72 83 84  73 74 85  73 84 85  74 75 86  74 85 86  75 76 87  75 86 87  77 78 89  77 88 89  78 79 90  78 89 90  79 80 91  79 90 91  80 81 92  80 91 92  81 82 93  81 92 93  82 83 94  82 93 94  83 84 95  83 94 95  84 85 96  84 95 96  85 86 97  85 96 97  86 87 98  86 97 98  88 89 100  88 99 100  89 90 101  89 100 101  90 91 102  90 101 102  91 92 103  91 102 103  92 93 104  92 103 104  93 94 105  93 104 105  94 95 106  94 105 106  95 96 107  95 106 107  96 97 108  96 107 108  97 98 109  97 108 109  99 100 111  99 110 111  100 101 112  100 111 112  101 102 113  101 112 113  102 103 114  102 113 114  103 104 115  103 114 115  104 105 116  104 115 116  105 106 117  105 116 117  106 107 118  106 117 118  107 108 119  107 118 119  108 109 120  108 119 120  </DataArray>
<DataArray  type="UInt32"  Name="offsets"  format="ascii">3 6 9 12 15 18 21 24 27 30 33 36 39 42 45 48 51 54 57 60 63 66 69 72 75 78 81 84 87 90 93 96 99 102 105 108 111 114 117 120 123 126 129 132 135 138 141 144 147 150 153 156 159 162 165 168 171 174 177 180 183 186 189 192 195 198 201 204 207 210 213 216 219 222 225 228 231 234 237 240 243 246 249 252 255 258 261 264 267 270 273 276 279 282 285 288 291 294 297 300 303 306 309 312 315 318 321 324 327 330 333 336 339 342 345 348 351 354 357 360 363 366 369 372 375 378 381 384 387 390 393 396 399 402 405 408 411 414 417 420 423 426 429 432 435 438 441 444 447 450 453 456 459 462 465 468 471 474 477 480 483 486 489 492 495 498 501 504 507 510 513 516 519 522 525 528 531 534 537 540 543 546 549 552 555 558 561 564 567 570 573 576 579 582 585 588 591 594 597 600 </DataArray>
<DataArray  type="UInt8"  Name="types"  format="ascii">5 5 5 5 5 5 5 5 5 5 5 5 5 5 5 5 5 5 5 5 5 5 5 5 5 5 5 5 5 5 5 5 5 5 5 5 5 5 5 5 5 5 5 5 5 5 5 5 5 5 5 5 5 5 5 5 5 5 5 5 5 5 5 5 5 5 5 5 5 5 5 5 5 5 5 5 5 5 5 5 5 5 5 5 5 5 5 5 5 5 5 5 5 5 5 5 5 5 5 5 5 5 5 5 5 5 5 5 5 5 5 5 5 5 5 5 5 5 5 5 5 5 5 5 5 5 5 5 5 5 5 5 5 5 5 5 5 5 5 5 5 5 5 5 5 5 5 5 5 5 5 5 5 5 5 5 5 5 5 5 5 5 5 5 5 5 5 5 5 5 5 5 5 5 5 5 5 5 5 5 5 5 5 5 5 5 5 5 5 5 5 5 5 5 5 5 5 5 5 5 </DataArray>
</Cells>
<PointData  Vectors="f_22"> 
<DataArray  type="Float64"  Name="f_22"  NumberOfComponents="3" format="ascii">0.0000000000000000e+00 0.0000000000000000e+00 0.0000000000000000e+00  0.0000000000000000e+00 0.0000000000000000e+00 0.0000000000000000e+00  0.0000000000000000e+00 0.0000000000000000e+00 0.0000000000000000e+00  0.0000000000000000e+00 0.0000000000000000e+00 0.0000000000000000e+00  0.0000000000000000e+00 0.0000000000000000e+00 0.0000000000000000e+00  0.0000000000000000e+00 0.0000000000000000e+00 0.0000000000000000e+00  0.0000000000000000e+00 0.0000000000000000e+00 0.0000000000000000e+00  0.0000000000000000e+00 0.0000000000000000e+00 0.0000000000000000e+00  0.0000000000000000e+00 0.0000000000000000e+00 0.0000000000000000e+00  0.0000000000000000e+00 0.0000000000000000e+00 0.0000000000000000e+00  0.0000000000000000e+00 0.0000000000000000e+00 0.0000000000000000e+00  0.0000000000000000e+00 0.0000000000000000e+00 0.0000000000000000e+00  1.9999718329728505e-02 -2.0298110964525148e-02 0.0000000000000000e+00  4.9365776886830921e-02 -2.1243133742352729e-02 0.0000000000000000e+00  8.0073109533423920e-02 -2.2307697057631061e-02 0.0000000000000000e+00  1.1373349504252540e-01 -2.4095052366854022e-02 0.0000000000000000e+00  1.4977303224788754e-01 -2.4784880862429151e-02 0.0000000000000000e+00  1.8646287082489707e-01 -2.4511617384457847e-02 0.0000000000000000e+00  2.2296127128147092e-01 -2.4281516420291489e-02 0.0000000000000000e+00  2.5989224448870696e-01 -2.5077098569763749e-02 0.0000000000000000e+00  2.9854114347208804e-01 -2.6883946198255845e-02 0.0000000000000000e+00  3.2629003236044091e-01 -3.0939479889355064e-02 0.0000000000000000e+00  0.0000000000000000e+00 0.0000000000000000e+00 0.0000000000000000e+00  1.9783994317394804e-02 -4.9019733870172014e-02 0.0000000000000000e+00  4.8842756045653871e-02 -5.1479344168296581e-02 0.0000000000000000e+00  8.0666690927799697e-02 -5.5871452933928749e-02 0.0000000000000000e+00  1.1744121641192903e-01 -6.1831757970459283e-02 0.0000000000000000e+00  1.5755964921616825e-01 -6.4431500644969983e-02 0.0000000000000000e+00  1.9813185170902051e-01 -6.3876271252542083e-02 0.0000000000000000e+00  2.3621638892369776e-01 -6.2723937568248886e-02 0.0000000000000000e+00  2.7091328465884801e-01 -6.2418154308099508e-02 0.0000000000000000e+00  2.9916388683581097e-01 -6.1431024805925230e-02 0.0000000000000000e+00  3.1277209600216310e-01 -6.0520292601581011e-02 0.0000000000000000e+00  0.0000000000000000e+00 0.0000000000000000e+00 0.0000000000000000e+00  1.9545606148818010e-02 -7.6749411285035235e-02 0.0000000000000000e+00  4.8681898347931782e-02 -8.1465830848923809e-02 0.0000000000000000e+00  8.1477771464036744e-02 -9.0778820843366761e-02 0.0000000000000000e+00  1.1962382912606491e-01 -1.0169751855631727e-01 0.0000000000000000e+00  1.6004286752101429e-01 -1.0549462422141632e-01 0.0000000000000000e+00  1.9857778285771047e-01 -1.0209725629157920e-01 0.0000000000000000e+00  2.3033549050548957e-01 -9.4714587963314195e-02 0.0000000000000000e+00  2.5348849431844556e-01 -8.5956867943111234e-02 0.0000000000000000e+00  2.6567233311185323e-01 -7.5638096490282705e-02 0.0000000000000000e+00  2.6261455383424831e-01 -6.1166593591385973e-02 0.0000000000000000e+00  0.0000000000000000e+00 0.0000000000000000e+00 0.0000000000000000e+00  1.9674596390558706e-02 -1.0469541630250843e-01 0.0000000000000000e+00  4.8983628864506364e-02 -1.1211590500043740e-01 0.0000000000000000e+00  8.1922539001581696e-02 -1.2642521851571895e-01 0.0000000000000000e+00  1.1913492521343227e-01 -1.4087768949564985e-01 0.0000000000000000e+00  1.5662287490179486e-01 -1.4331540670166351e-01 0.0000000000000000e+00  1.9098239041916901e-01 -1.3444770555960378e-01 0.0000000000000000e+00  2.1945120749161282e-01 -1.1909189207219538e-01 0.0000000000000000e+00  2.4244110278519712e-01 -1.0506435987450163e-01 0.0000000000000000e+00  2.6054407326472256e-01 -9.1722982903026370e-02 0.0000000000000000e+00  2.9615243560277871e-01 -5.6473061514759740e-02 0.0000000000000000e+00  0.0000000000000000e+00 0.0000000000000000e+00 0.0000000000000000e+00  1.8022290094541763e-02 -1.3159376214999408e-01 0.0000000000000000e+00  4.4188200205430239e-02 -1.4159564267679980e-01 0.0000000000000000e+00  7.3125927030090618e-02 -1.6057689224331401e-01 0.0000000000000000e+00  1.0419942472577889e-01 -1.7775614563422454e-01 0.0000000000000000e+00  1.3408766045216489e-01 -1.8016478275145856e-01 0.0000000000000000e+00  1.6433029591534706e-01 -1.7104391543908742e-01 0.0000000000000000e+00  1.9996624609212649e-01 -1.5599055675156293e-01 0.0000000000000000e+00  2.4410147266881166e-01 -1.4078228150294003e-01 0.0000000000000000e+00  2.9770085122687256e-01 -1.1688117762816973e-01 0.0000000000000000e+00  0.0000000000000000e+00 0.0000000000000000e+00 0.0000000000000000e+00  0.0000000000000000e+00 0.0000000000000000e+00 0.0000000000000000e+00  1.3646136654119677e-02 -1.5341840004483978e-01 0.0000000000000000e+00  3.1576608653959518e-02 -1.6397319133658950e-01 0.0000000000000000e+00  5.0499664751068749e-02 -1.8442313803929894e-01 0.0000000000000000e+00  6.9567846752146362e-02 -1.9799550485762435e-01 0.0000000000000000e+00  8.8771678766081608e-02 -1.9323988186832658e-01 0.0000000000000000e+00  1.1633196876234367e-01 -1.8023556347932429e-01 0.0000000000000000e+00  1.6389591007373577e-01 -1.7404127391000404e-01 0.0000000000000000e+00  2.4079431235958360e-01 -1.8248560102847161e-01 0.0000000000000000e+00  3.3064127015877876e-01 -1.6531468871774208e-01 0.0000000000000000e+00  0.0000000000000000e+00 0.0000000000000000e+00 0.0000000000000000e+00  0.0000000000000000e+00 0.0000000000000000e+00 0.0000000000000000e+00  5.6126810125467896e-03 -1.6413397887367065e-01 0.0000000000000000e+00  7.7784800116457598e-03 -1.7525432319782319e-01 0.0000000000000000e+00  8.8104901207260496e-03 -2.0183689206945671e-01 0.0000000000000000e+00  9.4864263325540009e-03 -2.2262961654261837e-01 0.0000000000000000e+00  1.3235789097107060e-02 -2.4036166275867377e-01 0.0000000000000000e+00  3.7616348818301032e-02 -2.8406928776785156e-01 0.0000000000000000e+00  1.0963887895391533e-01 -3.5990193693074168e-01 0.0000000000000000e+00  2.4916536508660042e-01 -4.2374359517800747e-01 0.0000000000000000e+00  3.6567842763925246e-01 -3.5795268174297556e-01 0.0000000000000000e+00  0.0000000000000000e+00 0.0000000000000000e+00 0.0000000000000000e+00  0.0000000000000000e+00 0.0000000000000000e+00 0.0000000000000000e+00  -7.0617325688083141e-03 -1.6116974123118838e-01 0.0000000000000000e+00  -2.5597646890867871e-02 -1.6639453046348565e-01 0.0000000000000000e+00  -4.1035548942870502e-02 -1.8140304285487235e-01 0.0000000000000000e+00  -4.3816176725878210e-02 -1.7716544950328539e-01 0.0000000000000000e+00  -3.0098295741324128e-02 -1.7007404523107258e-01 0.0000000000000000e+00  3.0800198619911217e-02 -1.8669747628827840e-01 0.0000000000000000e+00  1.4915935181731238e-01 -2.0911491202804891e-01 0.0000000000000000e+00  2.9284641087885421e-01 -2.4341531896901489e-01 0.0000000000000000e+00  3.8898922998420082e-01 -3.3675680011630654e-01 0.0000000000000000e+00  0.0000000000000000e+00 0.0000000000000000e+00 0.0000000000000000e+00  0.0000000000000000e+00 0.0000000000000000e+00 0.0000000000000000e+00  -2.1405986143422959e-02 -1.2682222359944723e-01 0.0000000000000000e+00  -6.6368300776571382e-02 -1.2492522919863368e-01 0.0000000000000000e+00  -1.0371785014131957e-01 -1.8085484475208527e-01 0.0000000000000000e+00  -8.3940129775353228e-02 -3.0614502081904799e-01 0.0000000000000000e+00  4.5440179834158878e-03 -4.3973135233272487e-01 0.0000000000000000e+00  7.4044682495034292e-02 -6.0519072733311774e-01 0.0000000000000000e+00  1.2811296539509365e-01 -8.1799105314385323e-01 0.0000000000000000e+00  1.7541814051936741e-01 -1.0667974031352603e+00 0.0000000000000000e+00  4.3091022381417837e-01 -1.2357454759682429e+00 0.0000000000000000e+00  0.0000000000000000e+00 0.0000000000000000e+00 0.0000000000000000e+00  0.0000000000000000e+00 0.0000000000000000e+00 0.0000000000000000e+00  -3.0436653548780775e-02 -9.6322069844714725e-02 0.0000000000000000e+00  -9.5630732783705666e-02 -8.8280997230784586e-02 0.0000000000000000e+00  -1.6515377679121984e-01 -1.6381788951266965e-01 0.0000000000000000e+00  -1.3720967796857175e-01 -3.1037004293416892e-01 0.0000000000000000e+00  0.0000000000000000e+00 0.0000000000000000e+00 0.0000000000000000e+00  0.0000000000000000e+00 0.0000000000000000e+00 0.0000000000000000e+00  0.0000000000000000e+00 0.0000000000000000e+00 0.0000000000000000e+00  0.0000000000000000e+00 0.0000000000000000e+00 0.0000000000000000e+00  0.0000000000000000e+00 0.0000000000000000e+00 0.0000000000000000e+00  0.0000000000000000e+00 0.0000000000000000e+00 0.0000000000000000e+00  </DataArray> 
</PointData> 
</Piece>
</UnstructuredGrid>
</VTKFile>