<?xml version="1.0"?>
<VTKFile type="UnstructuredGrid"  version="0.1"  >
<UnstructuredGrid>
<Piece  NumberOfPoints="121" NumberOfCells="200">
<Points>
<DataArray  type="Float64"  NumberOfComponents="3"  format="ascii">0 0 0  0.1 0 0  0.2 0 0  0.3 0 0  0.4 0 0  0.5 0 0  0.6 0 0  0.7 0 0  0.8 0 0  0.9 0 0  1 0 0  0 0.1 0  0.1 0.1 0  0.2 0.1 0  0.3 0.1 0  0.4 0.1 0  0.5 0.1 0  0.6 0.1 0  0.7 0.1 0  0.8 0.1 0  0.9 0.1 0  1 0.1 0  0 0.2 0  0.1 0.2 0  0.2 0.2 0  0.3 0.2 0  0.4 0.2 0  0.5 0.2 0  0.6 0.2 0  0.7 0.2 0  0.8 0.2 0  0.9 0.2 0  1 0.2 0  0 0.3 0  0.1 0.3 0  0.2 0.3 0  0.3 0.3 0  0.4 0.3 0  0.5 0.3 0  0.6 0.3 0  0.7 0.3 0  0.8 0.3 0  0.9 0.3 0  1 0.3 0  0 0.4 0  0.1 0.4 0  0.2 0.4 0  0.3 0.4 0  0.4 0.4 0  0.5 0.4 0  0.6 0.4 0  0.7 0.4 0  0.8 0.4 0  0.9 0.4 0  1 0.4 0  0 0.5 0  0.1 0.5 0  0.2 0.5 0  0.3 0.5 0  0.4 0.5 0  0.5 0.5 0  0.6 0.5 0  0.7 0.5 0  0.8 0.5 0  0.9 0.5 0  1 0.5 0  0 0.6 0  0.1 0.6 0  0.2 0.6 0  0.3 0.6 0  0.4 0.6 0  0.5 0.6 0  0.6 0.6 0  0.7 0.6 0  0.8 0.6 0  0.9 0.6 0  1 0.6 0  0 0.7 0  0.1 0.7 0  0.2 0.7 0  0.3 0.7 0  0.4 0.7 0  0.5 0.7 0  0.6 0.7 0  0.7 0.7 0  0.8 0.7 0  0.9 0.7 0  1 0.7 0  0 0.8 0  0.1 0.8 0  0.2 0.8 0  0.3 0.8 0  0.4 0.8 0  0.5 0.8 0  0.6 0.8 0  0.7 0.8 0  0.8 0.8 0  0.9 0.8 0  1 0.8 0  0 0.9 0  0.1 0.9 0  0.2 0.9 0  0.3 0.9 0  0.4 0.9 0  0.5 0.9 0  0.6 0.9 0  0.7 0.9 0  0.8 0.9 0  0.9 0.9 0  1 0.9 0  0 1 0  0.1 1 0  0.2 1 0  0.3 1 0  0.4 1 0  0.5 1 0  0.6 1 0  0.7 1 0  0.8 1 0  0.9 1 0  1 1 0  </DataArray>
</Points>
<Cells>
<DataArray  type="UInt32"  Name="connectivity"  format="ascii">0 1 12  0 11 12  1 2 13  1 12 13  2 3 14  2 13 14  3 4 15  3 14 15  4 5 16  4 15 16  5 6 17  5 16 17  6 7 18  6 17 18  7 8 19  7 18 19  8 9 20  8 19 20  9 10 21  9 20 21  11 12 23  11 22 23  12 13 24  12 23 24  13 14 25  13 24 25  14 15 26  14 25 26  15 16 27  15 26 27  16 17 28  16 27 28  17 18 29  17 28 29  18 19 30  18 29 30  19 20 31  19 30 31  20 21 32  20 31 32  22 23 34  22 33 34  23 24 35  23 34 35  24 25 36  24 35 36  25 26 37  25 36 37  26 27 38  26 37 38  27 28 39  27 38 39  28 29 40  28 39 40  29 30 41  29 40 41  30 31 42  30 41 42  31 32 43  31 42 43  33 34 45  33 44 45  34 35 46  34 45 46  35 36 47  35 46 47  36 37 48  36 47 48  37 38 49  37 48 49  38 39 50  38 49 50  39 40 51  39 50 51  40 41 52  40 51 52  41 42 53  41 52 53  42 43 54  42 53 54  44 45 56  44 55 56  45 46 57  45 56 57  46 47 58  46 57 58  47 48 59  47 58 59  48 49 60  48 59 60  49 50 61  49 60 61  50 51 62  50 61 62  51 52 63  51 62 63  52 53 64  52 63 64  53 54 65  53 64 65  55 56 67  55 66 67  56 57 68  56 67 68  57 58 69  57 68 69  58 59 70  58 69 70  59 60 71  59 70 71  60 61 72  60 71 72  61 62 73  61 72 73  62 63 74  62 73 74  63 64 75  63 74 75  64 65 76  64 75 76  66 67 78  66 77 78  67 68 79  67 78 79  68 69 80  68 79 80  69 70 81  69 80 81  70 71 82  70 81 82  71 72 83  71 82 83  72 73 84  72 83 84  73 74 85  73 84 85  74 75 86  74 85 86  75 76 87  75 86 87  77 78 89  77 88 89  78 79 90  78 89 90  79 80 91  79 90 91  80 81 92  80 91 92  81 82 93  81 92 93  82 83 94  82 93 94  83 84 95  83 94 95  84 85 96  84 95 96  85 86 97  85 96 97  86 87 98  86 97 98  88 89 100  88 99 100  89 90 101  89 100 101  90 91 102  90 101 102  91 92 103  91 102 103  92 93 104  92 103 104  93 94 105  93 104 105  94 95 106  94 105 106  95 96 107  95 106 107  96 97 108  96 107 108  97 98 109  97 108 109  99 100 111  99 110 111  100 101 112  100 111 112  101 102 113  101 112 113  102 103 114  102 113 114  103 104 115  103 114 115  104 105 116  104 115 116  105 106 117  105 116 117  106 107 118  106 117 118  107 108 119  107 118 119  108 109 120  108 119 120  </DataArray>
<DataArray  type="UInt32"  Name="offsets"  format="ascii">3 6 9 12 15 18 21 24 27 30 33 36 39 42 45 48 51 54 57 60 63 66 69 72 75 78 81 84 87 90 93 96 99 102 105 108 111 114 117 120 123 126 129 132 135 138 141 144 147 150 153 156 159 162 165 168 171 174 177 180 183 186 189 192 195 198 201 204 207 210 213 216 219 222 225 228 231 234 237 240 243 246 249 252 255 258 261 264 267 270 273 276 279 282 285 288 291 294 297 300 303 306 309 312 315 318 321 324 327 330 333 336 339 342 345 348 351 354 357 360 363 366 369 372 375 378 381 384 387 390 393 396 399 402 405 408 411 414 417 420 423 426 429 432 435 438 441 444 447 450 453 456 459 462 465 468 471 474 477 480 483 486 489 492 495 498 501 504 507 510 513 516 519 522 525 528 531 534 537 540 543 546 549 552 555 558 561 564 567 570 573 576 579 582 585 588 591 594 597 600 </DataArray>
<DataArray  type="UInt8"  Name="types"  format="ascii">5 5 5 5 5 5 5 5 5 5 5 5 5 5 5 5 5 5 5 5 5 5 5 5 5 5 5 5 5 5 5 5 5 5 5 5 5 5 5 5 5 5 5 5 5 5 5 5 5 5 5 5 5 5 5 5 5 5 5 5 5 5 5 5 5 5 5 5 5 5 5 5 5 5 5 5 5 5 5 5 5 5 5 5 5 5 5 5 5 5 5 5 5 5 5 5 5 5 5 5 5 5 5 5 5 5 5 5 5 5 5 5 5 5 5 5 5 5 5 5 5 5 5 5 5 5 5 5 5 5 5 5 5 5 5 5 5 5 5 5 5 5 5 5 5 5 5 5 5 5 5 5 5 5 5 5 5 5 5 5 5 5 5 5 5 5 5 5 5 5 5 5 5 5 5 5 5 5 5 5 5 5 5 5 5 5 5 5 5 5 5 5 5 5 5 5 5 5 5 5 </DataArray>
</Cells>
<PointData  Vectors="f_22"> 
<DataArray  type="Float64"  Name="f_22"  NumberOfComponents="3" format="ascii">0.0000000000000000e+00 0.0000000000000000e+00 0.0000000000000000e+00  0.0000000000000000e+00 0.0000000000000000e+00 0.0000000000000000e+00  0.0000000000000000e+00 0.0000000000000000e+00 0.0000000000000000e+00  0.0000000000000000e+00 0.0000000000000000e+00 0.0000000000000000e+00  0.0000000000000000e+00 0.0000000000000000e+00 0.0000000000000000e+00  0.0000000000000000e+00 0.0000000000000000e+00 0.0000000000000000e+00  0.0000000000000000e+00 0.0000000000000000e+00 0.0000000000000000e+00  0.0000000000000000e+00 0.0000000000000000e+00 0.0000000000000000e+00  0.0000000000000000e+00 0.0000000000000000e+00 0.0000000000000000e+00  0.0000000000000000e+00 0.0000000000000000e+00 0.0000000000000000e+00  0.0000000000000000e+00 0.0000000000000000e+00 0.0000000000000000e+00  0.0000000000000000e+00 0.0000000000000000e+00 0.0000000000000000e+00  -6.6116610636822466e-03 5.1926819824460796e-03 0.0000000000000000e+00  4.5736282975734491e-03 -9.3536198723834577e-03 0.0000000000000000e+00  3.4858611831896362e-02 -1.8239078488014083e-02 0.0000000000000000e+00  7.4631149415297138e-02 -2.2004348155392168e-02 0.0000000000000000e+00  1.1846633506268413e-01 -2.4029363063503596e-02 0.0000000000000000e+00  1.6538680704820174e-01 -2.6749773881623345e-02 0.0000000000000000e+00  2.1744630752048025e-01 -3.1614220465151006e-02 0.0000000000000000e+00  2.7841998657066663e-01 -3.9056951612881814e-02 0.0000000000000000e+00  3.5089607475364060e-01 -4.8866757710088117e-02 0.0000000000000000e+00  4.2567956930380740e-01 -5.8496423449235925e-02 0.0000000000000000e+00  0.0000000000000000e+00 0.0000000000000000e+00 0.0000000000000000e+00  2.6902687831124671e-04 6.8941868013823004e-04 0.0000000000000000e+00  2.3489516775347833e-02 -3.8373632024428263e-02 0.0000000000000000e+00  6.7349995299695639e-02 -6.2522780303704964e-02 0.0000000000000000e+00  1.2126368775581850e-01 -7.2687432002940769e-02 0.0000000000000000e+00  1.7869146462853444e-01 -7.7337913601901662e-02 0.0000000000000000e+00  2.3754972460238591e-01 -8.3028030164197103e-02 0.0000000000000000e+00  2.9945148554014184e-01 -9.4347396162143868e-02 0.0000000000000000e+00  3.6857214373941261e-01 -1.1416064847134214e-01 0.0000000000000000e+00  4.5011994316393727e-01 -1.4064318098678971e-01 0.0000000000000000e+00  5.3694220138453785e-01 -1.6453138707216766e-01 0.0000000000000000e+00  0.0000000000000000e+00 0.0000000000000000e+00 0.0000000000000000e+00  1.7817366697424656e-03 -1.1929964466441775e-02 0.0000000000000000e+00  2.8050296596718136e-02 -7.7720879359389469e-02 0.0000000000000000e+00  7.4593020823392087e-02 -1.1706279825168427e-01 0.0000000000000000e+00  1.3009864577418739e-01 -1.3251479258109441e-01 0.0000000000000000e+00  1.8700340105084062e-01 -1.3750146386203285e-01 0.0000000000000000e+00  2.4181806017195412e-01 -1.4250568474847941e-01 0.0000000000000000e+00  2.9536761515356530e-01 -1.5549223239587190e-01 0.0000000000000000e+00  3.5319966050005824e-01 -1.8089888488842756e-01 0.0000000000000000e+00  4.2111628476849711e-01 -2.1904374447921493e-01 0.0000000000000000e+00  5.0004535849698373e-01 -2.7626572779389486e-01 0.0000000000000000e+00  0.0000000000000000e+00 0.0000000000000000e+00 0.0000000000000000e+00  2.8460363557325681e-03 -2.3241110778586725e-02 0.0000000000000000e+00  3.0313503029585416e-02 -1.1311108398345285e-01 0.0000000000000000e+00  7.7596697666403966e-02 -1.6536876249138921e-01 0.0000000000000000e+00  1.3337373940545633e-01 -1.8469379505923619e-01 0.0000000000000000e+00  1.8804485399969395e-01 -1.8706567361040027e-01 0.0000000000000000e+00  2.3418089034001133e-01 -1.8630671534343471e-01 0.0000000000000000e+00  2.7040634023830512e-01 -1.9740215445172266e-01 0.0000000000000000e+00  3.0318224779618130e-01 -2.3364448826263304e-01 0.0000000000000000e+00  3.4022339638619492e-01 -3.0378427560552257e-01 0.0000000000000000e+00  3.8615576525658729e-01 -3.6174103156991028e-01 0.0000000000000000e+00  0.0000000000000000e+00 0.0000000000000000e+00 0.0000000000000000e+00  3.9313348595349249e-03 -4.0783285540105310e-02 0.0000000000000000e+00  3.1675987743339261e-02 -1.5958299389899602e-01 0.0000000000000000e+00  7.9761269605127333e-02 -2.2889913483643679e-01 0.0000000000000000e+00  1.3718481454194595e-01 -2.5218623597605777e-01 0.0000000000000000e+00  1.8903285188823382e-01 -2.4391403753983620e-01 0.0000000000000000e+00  2.2051425078177442e-01 -2.2340010081127018e-01 0.0000000000000000e+00  2.2946593576283097e-01 -2.1840200165500906e-01 0.0000000000000000e+00  2.2415549240342983e-01 -2.4732845333328413e-01 0.0000000000000000e+00  2.2504267760356961e-01 -3.0040166872274399e-01 0.0000000000000000e+00  0.0000000000000000e+00 0.0000000000000000e+00 0.0000000000000000e+00  0.0000000000000000e+00 0.0000000000000000e+00 0.0000000000000000e+00  5.0712218293391034e-03 -5.2424490067468889e-02 0.0000000000000000e+00  3.3161669562236366e-02 -1.8866819217838948e-01 0.0000000000000000e+00  8.0495731373912346e-02 -2.6796281519122506e-01 0.0000000000000000e+00  1.3617593382035545e-01 -2.9272465022945632e-01 0.0000000000000000e+00  1.7840667134043736e-01 -2.6564148366468537e-01 0.0000000000000000e+00  1.8302272787277959e-01 -2.1289880607439282e-01 0.0000000000000000e+00  1.5428448212353019e-01 -1.9237538605681226e-01 0.0000000000000000e+00  1.2273172509894328e-01 -2.2353823707144563e-01 0.0000000000000000e+00  6.5649922869424185e-02 -2.4687308939146613e-01 0.0000000000000000e+00  0.0000000000000000e+00 0.0000000000000000e+00 0.0000000000000000e+00  0.0000000000000000e+00 0.0000000000000000e+00 0.0000000000000000e+00  6.4062793646842428e-03 -7.2422833665613306e-02 0.0000000000000000e+00  3.0481032727038410e-02 -2.3797258046885561e-01 0.0000000000000000e+00  7.2818820787556027e-02 -3.4390197855675253e-01 0.0000000000000000e+00  1.2298987435560078e-01 -3.7394357064668038e-01 0.0000000000000000e+00  1.4463008382963338e-01 -2.9946114663274248e-01 0.0000000000000000e+00  1.1061436419324933e-01 -1.9151814763661615e-01 0.0000000000000000e+00  4.5099243124226703e-02 -1.5540062198234175e-01 0.0000000000000000e+00  9.9433961516563283e-03 -1.8207479046063207e-01 0.0000000000000000e+00  -1.6146019142830781e-01 -1.5036401209594669e-01 0.0000000000000000e+00  0.0000000000000000e+00 0.0000000000000000e+00 0.0000000000000000e+00  0.0000000000000000e+00 0.0000000000000000e+00 0.0000000000000000e+00  6.3393830355413707e-03 -8.3923406215190607e-02 0.0000000000000000e+00  2.7776927053637507e-02 -2.5610315518474941e-01 0.0000000000000000e+00  6.1976199288539285e-02 -3.6184540871845688e-01 0.0000000000000000e+00  9.3544896103209860e-02 -3.6954383930805063e-01 0.0000000000000000e+00  8.4208746239562760e-02 -2.2599963725283304e-01 0.0000000000000000e+00  2.1846214916651317e-02 -9.1281034402749164e-02 0.0000000000000000e+00  -6.9895822486390008e-02 -6.7738804336344813e-02 0.0000000000000000e+00  -1.0790651256222804e-01 -9.2307292859700504e-02 0.0000000000000000e+00  -4.2631598230631423e-01 -3.2035283051652853e-02 0.0000000000000000e+00  0.0000000000000000e+00 0.0000000000000000e+00 0.0000000000000000e+00  0.0000000000000000e+00 0.0000000000000000e+00 0.0000000000000000e+00  7.4971468838088201e-03 -1.0174383254310346e-01 0.0000000000000000e+00  2.2737835471533192e-02 -2.8827927659390340e-01 0.0000000000000000e+00  3.8045078211134377e-02 -4.1492160903376424e-01 0.0000000000000000e+00  4.8976011766245962e-02 -4.3486634627560822e-01 0.0000000000000000e+00  2.5759774010306075e-02 -2.3947105969931953e-01 0.0000000000000000e+00  -4.2294071755922202e-02 -7.8035270998906267e-02 0.0000000000000000e+00  -1.0902669022871156e-01 -3.8872942498089104e-03 0.0000000000000000e+00  -1.5743244310069718e-01 7.1544036259045374e-02 0.0000000000000000e+00  -6.2181545734430532e-01 8.2850365946530696e-02 0.0000000000000000e+00  0.0000000000000000e+00 0.0000000000000000e+00 0.0000000000000000e+00  0.0000000000000000e+00 0.0000000000000000e+00 0.0000000000000000e+00  7.8711827315687249e-03 -1.1408129950092583e-01 0.0000000000000000e+00  1.8848509302887621e-02 -2.9188904436067065e-01 0.0000000000000000e+00  2.6953304613112176e-02 -4.0798447777435642e-01 0.0000000000000000e+00  2.7784437464916184e-02 -3.9816601927492751e-01 0.0000000000000000e+00  0.0000000000000000e+00 0.0000000000000000e+00 0.0000000000000000e+00  0.0000000000000000e+00 0.0000000000000000e+00 0.0000000000000000e+00  0.0000000000000000e+00 0.0000000000000000e+00 0.0000000000000000e+00  0.0000000000000000e+00 0.0000000000000000e+00 0.0000000000000000e+00  0.0000000000000000e+00 0.0000000000000000e+00 0.0000000000000000e+00  0.0000000000000000e+00 0.0000000000000000e+00 0.0000000000000000e+00  </DataArray> 
</PointData> 
</Piece>
</UnstructuredGrid>
</VTKFile>