<?xml version="1.0"?>
<VTKFile type="UnstructuredGrid"  version="0.1"  >
<UnstructuredGrid>
<Piece  NumberOfPoints="121" NumberOfCells="200">
<Points>
<DataArray  type="Float64"  NumberOfComponents="3"  format="ascii">0 0 0  0.1 0 0  0.2 0 0  0.3 0 0  0.4 0 0  0.5 0 0  0.6 0 0  0.7 0 0  0.8 0 0  0.9 0 0  1 0 0  0 0.1 0  0.1 0.1 0  0.2 0.1 0  0.3 0.1 0  0.4 0.1 0  0.5 0.1 0  0.6 0.1 0  0.7 0.1 0  0.8 0.1 0  0.9 0.1 0  1 0.1 0  0 0.2 0  0.1 0.2 0  0.2 0.2 0  0.3 0.2 0  0.4 0.2 0  0.5 0.2 0  0.6 0.2 0  0.7 0.2 0  0.8 0.2 0  0.9 0.2 0  1 0.2 0  0 0.3 0  0.1 0.3 0  0.2 0.3 0  0.3 0.3 0  0.4 0.3 0  0.5 0.3 0  0.6 0.3 0  0.7 0.3 0  0.8 0.3 0  0.9 0.3 0  1 0.3 0  0 0.4 0  0.1 0.4 0  0.2 0.4 0  0.3 0.4 0  0.4 0.4 0  0.5 0.4 0  0.6 0.4 0  0.7 0.4 0  0.8 0.4 0  0.9 0.4 0  1 0.4 0  0 0.5 0  0.1 0.5 0  0.2 0.5 0  0.3 0.5 0  0.4 0.5 0  0.5 0.5 0  0.6 0.5 0  0.7 0.5 0  0.8 0.5 0  0.9 0.5 0  1 0.5 0  0 0.6 0  0.1 0.6 0  0.2 0.6 0  0.3 0.6 0  0.4 0.6 0  0.5 0.6 0  0.6 0.6 0  0.7 0.6 0  0.8 0.6 0  0.9 0.6 0  1 0.6 0  0 0.7 0  0.1 0.7 0  0.2 0.7 0  0.3 0.7 0  0.4 0.7 0  0.5 0.7 0  0.6 0.7 0  0.7 0.7 0  0.8 0.7 0  0.9 0.7 0  1 0.7 0  0 0.8 0  0.1 0.8 0  0.2 0.8 0  0.3 0.8 0  0.4 0.8 0  0.5 0.8 0  0.6 0.8 0  0.7 0.8 0  0.8 0.8 0  0.9 0.8 0  1 0.8 0  0 0.9 0  0.1 0.9 0  0.2 0.9 0  0.3 0.9 0  0.4 0.9 0  0.5 0.9 0  0.6 0.9 0  0.7 0.9 0  0.8 0.9 0  0.9 0.9 0  1 0.9 0  0 1 0  0.1 1 0  0.2 1 0  0.3 1 0  0.4 1 0  0.5 1 0  0.6 1 0  0.7 1 0  0.8 1 0  0.9 1 0  1 1 0  </DataArray>
</Points>
<Cells>
<DataArray  type="UInt32"  Name="connectivity"  format="ascii">0 1 12  0 11 12  1 2 13  1 12 13  2 3 14  2 13 14  3 4 15  3 14 15  4 5 16  4 15 16  5 6 17  5 16 17  6 7 18  6 17 18  7 8 19  7 18 19  8 9 20  8 19 20  9 10 21  9 20 21  11 12 23  11 22 23  12 13 24  12 23 24  13 14 25  13 24 25  14 15 26  14 25 26  15 16 27  15 26 27  16 17 28  16 27 28  17 18 29  17 28 29  18 19 30  18 29 30  19 20 31  19 30 31  20 21 32  20 31 32  22 23 34  22 33 34  23 24 35  23 34 35  24 25 36  24 35 36  25 26 37  25 36 37  26 27 38  26 37 38  27 28 39  27 38 39  28 29 40  28 39 40  29 30 41  29 40 41  30 31 42  30 41 42  31 32 43  31 42 43  33 34 45  33 44 45  34 35 46  34 45 46  35 36 47  35 46 47  36 37 48  36 47 48  37 38 49  37 48 49  38 39 50  38 49 50  39 40 51  39 50 51  40 41 52  40 51 52  41 42 53  41 52 53  42 43 54  42 53 54  44 45 56  44 55 56  45 46 57  45 56 57  46 47 58  46 57 58  47 48 59  47 58 59  48 49 60  48 59 60  49 50 61  49 60 61  50 51 62  50 61 62  51 52 63  51 62 63  52 53 64  52 63 64  53 54 65  53 64 65  55 56 67  55 66 67  56 57 68  56 67 68  57 58 69  57 68 69  58 59 70  58 69 70  59 60 71  59 70 71  60 61 72  60 71 72  61 62 73  61 72 73  62 63 74  62 73 74  63 64 75  63 74 75  64 65 76  64 75 76  66 67 78  66 77 78  67 68 79  67 78 79  68 69 80  68 79 80  69 70 81  69 80 81  70 71 82  70 81 82  71 72 83  71 82 83  72 73 84  72 83 84  73 74 85  73 84 85  74 75 86  74 85 86  75 76 87  75 86 87  77 78 89  77 88 89  78 79 90  78 89 90  79 80 91  79 90 91  80 81 92  80 91 92  81 82 93  81 92 93  82 83 94  82 93 94  83 84 95  83 94 95  84 85 96  84 95 96  85 86 97  85 96 97  86 87 98  86 97 98  88 89 100  88 99 100  89 90 101  89 100 101  90 91 102  90 101 102  91 92 103  91 102 103  92 93 104  92 103 104  93 94 105  93 104 105  94 95 106  94 105 106  95 96 107  95 106 107  96 97 108  96 107 108  97 98 109  97 108 109  99 100 111  99 110 111  100 101 112  100 111 112  101 102 113  101 112 113  102 103 114  102 113 114  103 104 115  103 114 115  104 105 116  104 115 116  105 106 117  105 116 117  106 107 118  106 117 118  107 108 119  107 118 119  108 109 120  108 119 120  </DataArray>
<DataArray  type="UInt32"  Name="offsets"  format="ascii">3 6 9 12 15 18 21 24 27 30 33 36 39 42 45 48 51 54 57 60 63 66 69 72 75 78 81 84 87 90 93 96 99 102 105 108 111 114 117 120 123 126 129 132 135 138 141 144 147 150 153 156 159 162 165 168 171 174 177 180 183 186 189 192 195 198 201 204 207 210 213 216 219 222 225 228 231 234 237 240 243 246 249 252 255 258 261 264 267 270 273 276 279 282 285 288 291 294 297 300 303 306 309 312 315 318 321 324 327 330 333 336 339 342 345 348 351 354 357 360 363 366 369 372 375 378 381 384 387 390 393 396 399 402 405 408 411 414 417 420 423 426 429 432 435 438 441 444 447 450 453 456 459 462 465 468 471 474 477 480 483 486 489 492 495 498 501 504 507 510 513 516 519 522 525 528 531 534 537 540 543 546 549 552 555 558 561 564 567 570 573 576 579 582 585 588 591 594 597 600 </DataArray>
<DataArray  type="UInt8"  Name="types"  format="ascii">5 5 5 5 5 5 5 5 5 5 5 5 5 5 5 5 5 5 5 5 5 5 5 5 5 5 5 5 5 5 5 5 5 5 5 5 5 5 5 5 5 5 5 5 5 5 5 5 5 5 5 5 5 5 5 5 5 5 5 5 5 5 5 5 5 5 5 5 5 5 5 5 5 5 5 5 5 5 5 5 5 5 5 5 5 5 5 5 5 5 5 5 5 5 5 5 5 5 5 5 5 5 5 5 5 5 5 5 5 5 5 5 5 5 5 5 5 5 5 5 5 5 5 5 5 5 5 5 5 5 5 5 5 5 5 5 5 5 5 5 5 5 5 5 5 5 5 5 5 5 5 5 5 5 5 5 5 5 5 5 5 5 5 5 5 5 5 5 5 5 5 5 5 5 5 5 5 5 5 5 5 5 5 5 5 5 5 5 5 5 5 5 5 5 5 5 5 5 5 5 </DataArray>
</Cells>
<PointData  Vectors="f_47"> 
<DataArray  type="Float64"  Name="f_47"  NumberOfComponents="3" format="ascii">0.0000000000000000e+00 0.0000000000000000e+00 0.0000000000000000e+00  0.0000000000000000e+00 0.0000000000000000e+00 0.0000000000000000e+00  0.0000000000000000e+00 0.0000000000000000e+00 0.0000000000000000e+00  0.0000000000000000e+00 0.0000000000000000e+00 0.0000000000000000e+00  0.0000000000000000e+00 0.0000000000000000e+00 0.0000000000000000e+00  0.0000000000000000e+00 0.0000000000000000e+00 0.0000000000000000e+00  0.0000000000000000e+00 0.0000000000000000e+00 0.0000000000000000e+00  0.0000000000000000e+00 0.0000000000000000e+00 0.0000000000000000e+00  0.0000000000000000e+00 0.0000000000000000e+00 0.0000000000000000e+00  0.0000000000000000e+00 0.0000000000000000e+00 0.0000000000000000e+00  0.0000000000000000e+00 0.0000000000000000e+00 0.0000000000000000e+00  0.0000000000000000e+00 0.0000000000000000e+00 0.0000000000000000e+00  2.3605428010540136e-02 -2.3681329706425797e-02 0.0000000000000000e+00  4.8237762384170074e-02 -2.4287678932916293e-02 0.0000000000000000e+00  7.3201813784225925e-02 -2.4104195531951658e-02 0.0000000000000000e+00  9.7955444895117066e-02 -2.3546416984166662e-02 0.0000000000000000e+00  1.2200919758607832e-01 -2.2354608118958542e-02 0.0000000000000000e+00  1.4460293143111910e-01 -2.0222869585754293e-02 0.0000000000000000e+00  1.6463149493588838e-01 -1.6862960832405755e-02 0.0000000000000000e+00  1.8055789477102263e-01 -1.2108553025575106e-02 0.0000000000000000e+00  1.8974833362244878e-01 -6.2825203254785987e-03 0.0000000000000000e+00  1.7514858989963603e-01 -2.2101499795490389e-03 0.0000000000000000e+00  0.0000000000000000e+00 0.0000000000000000e+00 0.0000000000000000e+00  2.4255381017836197e-02 -4.8419415974548859e-02 0.0000000000000000e+00  5.1683548587543759e-02 -5.1742119421053952e-02 0.0000000000000000e+00  7.9632688684269926e-02 -5.1735684633517617e-02 0.0000000000000000e+00  1.0773789081950957e-01 -5.0917484930001394e-02 0.0000000000000000e+00  1.3555579114493121e-01 -4.8842716445250664e-02 0.0000000000000000e+00  1.6230150391397924e-01 -4.4825663342164722e-02 0.0000000000000000e+00  1.8669952946791804e-01 -3.8165268170010751e-02 0.0000000000000000e+00  2.0684913891045326e-01 -2.8126056486853526e-02 0.0000000000000000e+00  2.1990585201220139e-01 -1.4842275887581061e-02 0.0000000000000000e+00  2.1992373747730576e-01 -5.7487339544747985e-03 0.0000000000000000e+00  0.0000000000000000e+00 0.0000000000000000e+00 0.0000000000000000e+00  2.4077821691087707e-02 -7.3488063202368947e-02 0.0000000000000000e+00  5.1718947258360307e-02 -7.9717635208698331e-02 0.0000000000000000e+00  8.0410853048035441e-02 -8.0410914196832731e-02 0.0000000000000000e+00  1.0991113468941295e-01 -7.9930110307957644e-02 0.0000000000000000e+00  1.3996150884710207e-01 -7.7670143427168839e-02 0.0000000000000000e+00  1.6984502732063894e-01 -7.2455440616145270e-02 0.0000000000000000e+00  1.9826844977389252e-01 -6.3015212570665571e-02 0.0000000000000000e+00  2.2308993127354543e-01 -4.8299983026182450e-02 0.0000000000000000e+00  2.4068725670262814e-01 -2.6409183370034280e-02 0.0000000000000000e+00  2.4310953930364354e-01 -1.0888800247927672e-02 0.0000000000000000e+00  0.0000000000000000e+00 0.0000000000000000e+00 0.0000000000000000e+00  2.3522806776160182e-02 -9.8345673521198579e-02 0.0000000000000000e+00  5.0916623325513798e-02 -1.0784721608053632e-01 0.0000000000000000e+00  7.9972013386026719e-02 -1.0989091899228719e-01 0.0000000000000000e+00  1.1080333182247334e-01 -1.1070162532897168e-01 0.0000000000000000e+00  1.4354130076727911e-01 -1.0947030901684994e-01 0.0000000000000000e+00  1.7768542649163002e-01 -1.0434455584747614e-01 0.0000000000000000e+00  2.1143042951193744e-01 -9.3010577201622480e-02 0.0000000000000000e+00  2.4093005367112871e-01 -7.3630381568321426e-02 0.0000000000000000e+00  2.5694621977855453e-01 -4.1999900548035540e-02 0.0000000000000000e+00  2.7128262922227325e-01 -1.8297474764081188e-02 0.0000000000000000e+00  0.0000000000000000e+00 0.0000000000000000e+00 0.0000000000000000e+00  2.2335124926990066e-02 -1.2249422752977687e-01 0.0000000000000000e+00  4.8854328899347342e-02 -1.3568975868972322e-01 0.0000000000000000e+00  7.7743189779445512e-02 -1.3992369876220712e-01 0.0000000000000000e+00  1.0964907932503634e-01 -1.4335471626417695e-01 0.0000000000000000e+00  1.4542003966891978e-01 -1.4505187564576760e-01 0.0000000000000000e+00  1.8543450159818603e-01 -1.4231672135664716e-01 0.0000000000000000e+00  2.2817558294658238e-01 -1.3079189846176337e-01 0.0000000000000000e+00  2.6709636526356095e-01 -1.0506493017139820e-01 0.0000000000000000e+00  2.6991469850532596e-01 -6.0981739713711500e-02 0.0000000000000000e+00  0.0000000000000000e+00 0.0000000000000000e+00 0.0000000000000000e+00  0.0000000000000000e+00 0.0000000000000000e+00 0.0000000000000000e+00  2.0212522518880022e-02 -1.4516116275816263e-01 0.0000000000000000e+00  4.4853948663768822e-02 -1.6245854156853207e-01 0.0000000000000000e+00  7.2566220247772817e-02 -1.6982005326994312e-01 0.0000000000000000e+00  1.0459196003396909e-01 -1.7742603372475813e-01 0.0000000000000000e+00  1.4284889469517667e-01 -1.8473430509136110e-01 0.0000000000000000e+00  1.8978873358826578e-01 -1.8842781021505495e-01 0.0000000000000000e+00  2.4599806128694721e-01 -1.8183102315292515e-01 0.0000000000000000e+00  3.0398066970019488e-01 -1.5159044301624486e-01 0.0000000000000000e+00  3.1928776623488986e-01 -8.7990099556682355e-02 0.0000000000000000e+00  0.0000000000000000e+00 0.0000000000000000e+00 0.0000000000000000e+00  0.0000000000000000e+00 0.0000000000000000e+00 0.0000000000000000e+00  1.6877301035515470e-02 -1.6523267172873637e-01 0.0000000000000000e+00  3.8230149527444600e-02 -1.8689375919358089e-01 0.0000000000000000e+00  6.3231224849087733e-02 -1.9839677167659195e-01 0.0000000000000000e+00  9.3522940022350440e-02 -2.1140164896746250e-01 0.0000000000000000e+00  1.3181202373048762e-01 -2.2742060059369879e-01 0.0000000000000000e+00  1.8378544950310516e-01 -2.4393214671164645e-01 0.0000000000000000e+00  2.5756161985303200e-01 -2.5250344615401404e-01 0.0000000000000000e+00  3.4850255108482814e-01 -2.2997103487602855e-01 0.0000000000000000e+00  3.8882056257518433e-01 -1.4268177426292677e-01 0.0000000000000000e+00  0.0000000000000000e+00 0.0000000000000000e+00 0.0000000000000000e+00  0.0000000000000000e+00 0.0000000000000000e+00 0.0000000000000000e+00  1.2133519314303972e-02 -1.8119301907574839e-01 0.0000000000000000e+00  2.8217073098627022e-02 -2.0724777640907235e-01 0.0000000000000000e+00  4.8709291835973521e-02 -2.2361861256085008e-01 0.0000000000000000e+00  7.4887401240476256e-02 -2.4353495372220776e-01 0.0000000000000000e+00  1.0735119908387730e-01 -2.7023123237527952e-01 0.0000000000000000e+00  1.5793151919061524e-01 -3.0787599957895184e-01 0.0000000000000000e+00  2.4601267268371932e-01 -3.5129218692391800e-01 0.0000000000000000e+00  3.8070935125595123e-01 -3.8509545613983676e-01 0.0000000000000000e+00  4.8074522785155976e-01 -2.7098215656029601e-01 0.0000000000000000e+00  0.0000000000000000e+00 0.0000000000000000e+00 0.0000000000000000e+00  0.0000000000000000e+00 0.0000000000000000e+00 0.0000000000000000e+00  6.2074326770031928e-03 -1.9081648978202931e-01 0.0000000000000000e+00  1.4444980883725369e-02 -2.2112130323387874e-01 0.0000000000000000e+00  2.5662064002015317e-02 -2.4295440957483944e-01 0.0000000000000000e+00  4.0915751974625991e-02 -2.6524418174622222e-01 0.0000000000000000e+00  6.0578339281740050e-02 -2.9919346611473069e-01 0.0000000000000000e+00  8.6076114085959318e-02 -3.6686561902915577e-01 0.0000000000000000e+00  1.4307189525622768e-01 -4.7835787990034156e-01 0.0000000000000000e+00  3.3100363037335501e-01 -6.8396483379321293e-01 0.0000000000000000e+00  6.0609492164212753e-01 -8.5084064436843987e-01 0.0000000000000000e+00  0.0000000000000000e+00 0.0000000000000000e+00 0.0000000000000000e+00  0.0000000000000000e+00 0.0000000000000000e+00 0.0000000000000000e+00  2.3911421417923901e-03 -1.7382052483071703e-01 0.0000000000000000e+00  5.9772135765327195e-03 -2.1892846260101842e-01 0.0000000000000000e+00  1.1362144796311629e-02 -2.4225972995489400e-01 0.0000000000000000e+00  1.9276932383864666e-02 -2.7015807714786860e-01 0.0000000000000000e+00  0.0000000000000000e+00 0.0000000000000000e+00 0.0000000000000000e+00  0.0000000000000000e+00 0.0000000000000000e+00 0.0000000000000000e+00  0.0000000000000000e+00 0.0000000000000000e+00 0.0000000000000000e+00  0.0000000000000000e+00 0.0000000000000000e+00 0.0000000000000000e+00  0.0000000000000000e+00 0.0000000000000000e+00 0.0000000000000000e+00  0.0000000000000000e+00 0.0000000000000000e+00 0.0000000000000000e+00  </DataArray> 
</PointData> 
</Piece>
</UnstructuredGrid>
</VTKFile>