<?xml version="1.0"?>
<VTKFile type="UnstructuredGrid"  version="0.1"  >
<UnstructuredGrid>
<Piece  NumberOfPoints="9" NumberOfCells="8">
<Points>
<DataArray  type="Float64"  NumberOfComponents="3"  format="ascii">0 0 0  0.5 0 0  1 0 0  0 0.5 0  0.5 0.5 0  1 0.5 0  0 1 0  0.5 1 0  1 1 0  </DataArray>
</Points>
<Cells>
<DataArray  type="UInt32"  Name="connectivity"  format="ascii">0 1 4  0 3 4  1 2 5  1 4 5  3 4 7  3 6 7  4 5 8  4 7 8  </DataArray>
<DataArray  type="UInt32"  Name="offsets"  format="ascii">3 6 9 12 15 18 21 24 </DataArray>
<DataArray  type="UInt8"  Name="types"  format="ascii">5 5 5 5 5 5 5 5 </DataArray>
</Cells>
<PointData  Scalars="u"> 
<DataArray  type="Float64"  Name="u"  format="ascii">0.0000000000000000e+00  3.6904761904761896e-01  4.7619047619047616e-01  0.0000000000000000e+00  3.7500000000000000e-01  5.0000000000000000e-01  0.0000000000000000e+00  3.8095238095238099e-01  5.2380952380952384e-01  </DataArray> 
</PointData> 
</Piece>
</UnstructuredGrid>
</VTKFile>